 Entering Gaussian System, Link 0=gdv
 Input=test001.gjf
 Output=/Users/hhratchian/Codes/VibFreqAnalysis/GTests/test001.log
 Initial command:
 /Users/hhratchian/.gaussian/gdv-current/gdv/l1.exe "/Users/hhratchian/.scratch/Gau-24633.inp" -scrdir="/Users/hhratchian/.scratch/"
 Entering Link 1 = /Users/hhratchian/.gaussian/gdv-current/gdv/l1.exe PID=     24634.
  
 Copyright (c) 1988-2019, Gaussian, Inc.  All Rights Reserved.
  
 This is the private, development version of
 the Gaussian(R) DV system of programs. It is based on
 the Gaussian(R) 16 system (copyright 2016, Gaussian, Inc.),
 the Gaussian(R) 09 system (copyright 2009, Gaussian, Inc.),
 the Gaussian(R) 03 system (copyright 2003, Gaussian, Inc.),
 the Gaussian(R) 98 system (copyright 1998, Gaussian, Inc.),
 the Gaussian(R) 94 system (copyright 1995, Gaussian, Inc.),
 the Gaussian 92(TM) system (copyright 1992, Gaussian, Inc.),
 the Gaussian 90(TM) system (copyright 1990, Gaussian, Inc.),
 the Gaussian 88(TM) system (copyright 1988, Gaussian, Inc.),
 the Gaussian 86(TM) system (copyright 1986, Carnegie Mellon
 University), and the Gaussian 82(TM) system (copyright 1983,
 Carnegie Mellon University). Gaussian is a federally registered
 trademark of Gaussian, Inc.
  
 This software contains proprietary and confidential information,
 including trade secrets, belonging to Gaussian, Inc.
  
 This software is provided under written license and may be
 used, copied, transmitted, or stored only in accord with that
 written license.
  
 The following legend is applicable only to US Government
 contracts under FAR:
  
                    RESTRICTED RIGHTS LEGEND
  
 Use, reproduction and disclosure by the US Government is
 subject to restrictions as set forth in subparagraphs (a)
 and (c) of the Commercial Computer Software - Restricted
 Rights clause in FAR 52.227-19.
  
 Gaussian, Inc.
 340 Quinnipiac St., Bldg. 40, Wallingford CT 06492
  
  
 ---------------------------------------------------------------
 Warning -- This program may not be used in any manner that
 competes with the business of Gaussian, Inc. or will provide
 assistance to any competitor of Gaussian, Inc.  The licensee
 of this program is prohibited from giving any competitor of
 Gaussian, Inc. access to this program.  By using this program,
 the user acknowledges that Gaussian, Inc. is engaged in the
 business of creating and licensing software in the field of
 computational chemistry and represents and warrants to the
 licensee that it is not a competitor of Gaussian, Inc. and that
 it will not use this program in any manner prohibited above.
 ---------------------------------------------------------------
  

 Cite this work as:
 Gaussian Development Version, Revision J.04+,
 M. J. Frisch, G. W. Trucks, H. B. Schlegel, G. E. Scuseria, 
 M. A. Robb, J. R. Cheeseman, G. Scalmani, V. Barone, 
 G. A. Petersson, H. Nakatsuji, X. Li, M. Caricato, A. V. Marenich, 
 J. Bloino, B. G. Janesko, R. Gomperts, B. Mennucci, H. P. Hratchian, 
 J. V. Ortiz, A. F. Izmaylov, J. L. Sonnenberg, D. Williams-Young, 
 F. Ding, F. Lipparini, F. Egidi, J. Goings, B. Peng, A. Petrone, 
 T. Henderson, D. Ranasinghe, V. G. Zakrzewski, J. Gao, N. Rega, 
 G. Zheng, W. Liang, M. Hada, M. Ehara, K. Toyota, R. Fukuda, 
 J. Hasegawa, M. Ishida, T. Nakajima, Y. Honda, O. Kitao, H. Nakai, 
 T. Vreven, K. Throssell, J. A. Montgomery, Jr., J. E. Peralta, 
 F. Ogliaro, M. J. Bearpark, J. J. Heyd, E. N. Brothers, K. N. Kudin, 
 V. N. Staroverov, T. A. Keith, R. Kobayashi, J. Normand, 
 K. Raghavachari, A. P. Rendell, J. C. Burant, S. S. Iyengar, 
 J. Tomasi, M. Cossi, J. M. Millam, M. Klene, C. Adamo, R. Cammi, 
 J. W. Ochterski, R. L. Martin, K. Morokuma, O. Farkas, 
 J. B. Foresman, and D. J. Fox, Gaussian, Inc., Wallingford CT, 2019.
 
 *******************************************
 Gaussian DV:  EM64M-GDVRevJ.04+ 11-Sep-2019
                 13-Nov-2019 
 *******************************************
 %chk=test001
 -----------------------------------------------
 #p test hf geom=modela opt symm=saveOrientation
 -----------------------------------------------
 1/18=20,19=15,29=4,38=1/1,3;
 2/9=110,12=2,17=6,18=5,21=100,40=1/2;
 3/11=9,25=1,30=1,71=1/1,2,3;
 4//1;
 5/5=2,38=5/2;
 6/7=2,8=2,9=2,10=2,28=1/1;
 7//1,2,3,16;
 1/18=20,19=15/3(2);
 2/9=110,21=100/2;
 99//99;
 2/9=110,21=100/2;
 3/11=9,25=1,30=1,71=1/1,2,3;
 4/5=5,16=3,69=1/1;
 5/5=2,38=5/2;
 7//1,2,3,16;
 1/18=20,19=15/3(-5);
 2/9=110,21=100/2;
 6/7=2,8=2,9=2,10=2,19=2,28=1/1;
 99/9=1/99;
 Leave Link    1 at Wed Nov 13 12:36:31 2019, MaxMem=           0 cpu:               0.0 elap:               0.0
 (Enter /Users/hhratchian/.gaussian/gdv-current/gdv/l101.exe)
 ----
 test
 ----
 Charge =  0 Multiplicity = 1
 Model A used to generate z-matrix:
 Short formula matrix:
   Atom   Symbol  Geom  Angle     Array F
    1        C    Tetr         2   4   5   6
    2        O    Bent         1   3   0   0
    3        H                 2   0   0   0
    4        H                 1   0   0   0
    5        H                 1   0   0   0
    6        C    Tetr         1   7   8   9
    7        H                 6   0   0   0
    8        H                 6   0   0   0
    9        H                 6   0   0   0
 Generated Z-Matrix:
 C
 O,1,R2
 H,1,R3,2,A3
 H,1,R4,2,A4,3,D4,0
 C,1,R5,2,A5,3,D5,0
 H,2,R6,1,A6,3,D6,0
 H,5,R7,1,A7,2,D7,0
 H,5,R8,1,A8,7,D8,0
 H,5,R9,1,A9,7,D9,0
      Variables:
 R2=1.43
 R3=1.09
 R4=1.09
 R5=1.54
 R6=0.96
 R7=1.09
 R8=1.09
 R9=1.09
 A3=109.47122063
 A4=109.47122063
 A5=109.47122063
 A6=109.47122063
 A7=109.47122063
 A8=109.47122063
 A9=109.47122063
 D4=120.
 D5=-120.
 D6=180.
 D7=180.
 D8=120.
 D9=-120.
     7 tetrahedral angles replaced.
 ITRead=  0  0  0  0  0  0  0  0  0
 MicOpt= -1 -1 -1 -1 -1 -1 -1 -1 -1
 NAtoms=      9 NQM=        9 NQMF=       0 NMMI=      0 NMMIF=      0
                NMic=       0 NMicF=      0.
                    Isotopes and Nuclear Properties:
 (Nuclear quadrupole moments (NQMom) in fm**2, nuclear magnetic moments (NMagM)
  in nuclear magnetons)

  Atom         1           2           3           4           5           6           7           8           9
 IAtWgt=          12          16           1           1          12           1           1           1           1
 AtmWgt=  12.0000000  15.9949146   1.0078250   1.0078250  12.0000000   1.0078250   1.0078250   1.0078250   1.0078250
 NucSpn=           0           0           1           1           0           1           1           1           1
 AtZEff=   0.0000000   0.0000000   0.0000000   0.0000000   0.0000000   0.0000000   0.0000000   0.0000000   0.0000000
 NQMom=    0.0000000   0.0000000   0.0000000   0.0000000   0.0000000   0.0000000   0.0000000   0.0000000   0.0000000
 NMagM=    0.0000000   0.0000000   2.7928460   2.7928460   0.0000000   2.7928460   2.7928460   2.7928460   2.7928460
 AtZNuc=   6.0000000   8.0000000   1.0000000   1.0000000   6.0000000   1.0000000   1.0000000   1.0000000   1.0000000
 Leave Link  101 at Wed Nov 13 12:36:31 2019, MaxMem=   100000000 cpu:               0.2 elap:               0.3
 (Enter /Users/hhratchian/.gaussian/gdv-current/gdv/l103.exe)

 GradGradGradGradGradGradGradGradGradGradGradGradGradGradGradGradGradGrad
 Berny optimization.
 Initialization pass.
                           ----------------------------
                           !    Initial Parameters    !
                           ! (Angstroms and Degrees)  !
 --------------------------                            --------------------------
 ! Name  Definition              Value          Derivative Info.                !
 --------------------------------------------------------------------------------
 ! R1    R(1,2)                  1.43           estimate D2E/DX2                !
 ! R2    R(1,3)                  1.09           estimate D2E/DX2                !
 ! R3    R(1,4)                  1.09           estimate D2E/DX2                !
 ! R4    R(1,5)                  1.54           estimate D2E/DX2                !
 ! R5    R(2,6)                  0.96           estimate D2E/DX2                !
 ! R6    R(5,7)                  1.09           estimate D2E/DX2                !
 ! R7    R(5,8)                  1.09           estimate D2E/DX2                !
 ! R8    R(5,9)                  1.09           estimate D2E/DX2                !
 ! A1    A(2,1,3)              109.4712         estimate D2E/DX2                !
 ! A2    A(2,1,4)              109.4712         estimate D2E/DX2                !
 ! A3    A(2,1,5)              109.4712         estimate D2E/DX2                !
 ! A4    A(3,1,4)              109.4712         estimate D2E/DX2                !
 ! A5    A(3,1,5)              109.4712         estimate D2E/DX2                !
 ! A6    A(4,1,5)              109.4712         estimate D2E/DX2                !
 ! A7    A(1,2,6)              109.4712         estimate D2E/DX2                !
 ! A8    A(1,5,7)              109.4712         estimate D2E/DX2                !
 ! A9    A(1,5,8)              109.4712         estimate D2E/DX2                !
 ! A10   A(1,5,9)              109.4712         estimate D2E/DX2                !
 ! A11   A(7,5,8)              109.4712         estimate D2E/DX2                !
 ! A12   A(7,5,9)              109.4712         estimate D2E/DX2                !
 ! A13   A(8,5,9)              109.4712         estimate D2E/DX2                !
 ! D1    D(3,1,2,6)            180.0            estimate D2E/DX2                !
 ! D2    D(4,1,2,6)            -60.0            estimate D2E/DX2                !
 ! D3    D(5,1,2,6)             60.0            estimate D2E/DX2                !
 ! D4    D(2,1,5,7)            180.0            estimate D2E/DX2                !
 ! D5    D(2,1,5,8)            -60.0            estimate D2E/DX2                !
 ! D6    D(2,1,5,9)             60.0            estimate D2E/DX2                !
 ! D7    D(3,1,5,7)             60.0            estimate D2E/DX2                !
 ! D8    D(3,1,5,8)            180.0            estimate D2E/DX2                !
 ! D9    D(3,1,5,9)            -60.0            estimate D2E/DX2                !
 ! D10   D(4,1,5,7)            -60.0            estimate D2E/DX2                !
 ! D11   D(4,1,5,8)             60.0            estimate D2E/DX2                !
 ! D12   D(4,1,5,9)            180.0            estimate D2E/DX2                !
 --------------------------------------------------------------------------------
 Trust Radius=3.00D-01 FncErr=1.00D-07 GrdErr=1.00D-07 EigMax=2.50D+02 EigMin=1.00D-04
 Number of steps in this run=     43 maximum allowed number of steps=    100.
 GradGradGradGradGradGradGradGradGradGradGradGradGradGradGradGradGradGrad

 Leave Link  103 at Wed Nov 13 12:36:31 2019, MaxMem=   100000000 cpu:               0.0 elap:               0.0
 (Enter /Users/hhratchian/.gaussian/gdv-current/gdv/l202.exe)
                          Input orientation:                          
 ---------------------------------------------------------------------
 Center     Atomic      Atomic             Coordinates (Angstroms)
 Number     Number       Type             X           Y           Z
 ---------------------------------------------------------------------
      1          6           0        0.000000    0.000000    0.000000
      2          8           0        0.000000    0.000000    1.430000
      3          1           0        1.027662    0.000000   -0.363333
      4          1           0       -0.513831   -0.889981   -0.363333
      5          6           0       -0.725963    1.257405   -0.513333
      6          1           0       -0.905097    0.000000    1.750000
      7          1           0       -0.725963    1.257405   -1.603333
      8          1           0       -1.753625    1.257405   -0.150000
      9          1           0       -0.212132    2.147386   -0.150000
 ---------------------------------------------------------------------
                    Distance matrix (angstroms):
                    1          2          3          4          5
     1  C    0.000000
     2  O    1.430000   0.000000
     3  H    1.090000   2.066914   0.000000
     4  H    1.090000   2.066914   1.779963   0.000000
     5  C    1.540000   2.425826   2.163046   2.163046   0.000000
     6  H    1.970203   0.960000   2.863867   2.326227   2.595348
     7  H    2.163046   3.362915   2.488748   2.488748   1.090000
     8  H    2.163046   2.674447   3.059760   2.488748   1.090000
     9  H    2.163046   2.674447   2.488748   3.059760   1.090000
                    6          7          8          9
     6  H    0.000000
     7  H    3.585805   0.000000
     8  H    2.431269   1.779963   0.000000
     9  H    2.949825   1.779963   1.779963   0.000000
 Stoichiometry    C2H6O
 Framework group  C1[X(C2H6O)]
 Deg. of freedom    21
 Full point group                 C1      NOp   1
 Largest Abelian subgroup         C1      NOp   1
 Largest concise Abelian subgroup C1      NOp   1
                         Standard orientation:                         
 ---------------------------------------------------------------------
 Center     Atomic      Atomic             Coordinates (Angstroms)
 Number     Number       Type             X           Y           Z
 ---------------------------------------------------------------------
      1          6           0       -0.084812    0.587192    0.045646
      2          8           0       -1.221991   -0.265464   -0.111521
      3          1           0       -0.074202    1.329502   -0.752454
      4          1           0       -0.139494    1.091653    1.010336
      5          6           0        1.202107   -0.256056   -0.020466
      6          1           0       -1.231336   -0.919242    0.591393
      7          1           0        2.068908    0.393871    0.099333
      8          1           0        1.191497   -0.998366    0.777634
      9          1           0        1.256788   -0.760518   -0.985156
 ---------------------------------------------------------------------
 Rotational constants (GHZ):          32.8715728           9.4023418           8.1952480
 Marking standard orientation as input orientation.
 Leave Link  202 at Wed Nov 13 12:36:31 2019, MaxMem=   100000000 cpu:               0.0 elap:               0.0
 (Enter /Users/hhratchian/.gaussian/gdv-current/gdv/l301.exe)
 Standard basis: STO-3G (5D, 7F)
 Ernie: Thresh=  0.10000D-02 Tol=  0.10000D-05 Strict=F.
 There are    21 symmetry adapted cartesian basis functions of A   symmetry.
 There are    21 symmetry adapted basis functions of A   symmetry.
    21 basis functions,    63 primitive gaussians,    21 cartesian basis functions
    13 alpha electrons       13 beta electrons
       nuclear repulsion energy        81.6159211793 Hartrees.
 IExCor=    0 DFT=F Ex=HF Corr=None N6=None ScaHFX=  1.000000
 ScaDFX=  1.000000  1.000000  1.000000  1.000000  1.000000  0.000000
 ScaDFX=  0.000000  0.000000  0.000000  0.000000  0.000000  0.000000
 IRadAn=      5 IRanWt=     -1 IRanGd=            0 ICorTp=0 IEmpDi=  4
 NAtoms=    9 NActive=    9 NUniq=    9 SFac= 1.00D+00 NAtFMM=   60 NAOKFM=F Big=F
 Integral buffers will be    131072 words long.
 Raffenetti 1 integral format.
 Two-electron integral symmetry is turned on.
 Leave Link  301 at Wed Nov 13 12:36:31 2019, MaxMem=   100000000 cpu:               0.0 elap:               0.0
 (Enter /Users/hhratchian/.gaussian/gdv-current/gdv/l302.exe)
 NPDir=0 NMtPBC=     1 NCelOv=     1 NCel=       1 NClECP=     1 NCelD=      1
         NCelK=      1 NCelE2=     1 NClLst=     1 CellRange=     0.0.
 One-electron integrals computed using PRISM.
 One-electron integral symmetry used in STVInt
 NBasis=    21 RedAO= T EigKep=  2.12D-01  NBF=    21
 NBsUse=    21 1.00D-06 EigRej= -1.00D+00 NBFU=    21
 Leave Link  302 at Wed Nov 13 12:36:31 2019, MaxMem=   100000000 cpu:               0.1 elap:               0.1
 (Enter /Users/hhratchian/.gaussian/gdv-current/gdv/l303.exe)
 DipDrv:  MaxL=1.
 Leave Link  303 at Wed Nov 13 12:36:31 2019, MaxMem=   100000000 cpu:               0.0 elap:               0.0
 (Enter /Users/hhratchian/.gaussian/gdv-current/gdv/l401.exe)
 ExpMin= 1.69D-01 ExpMax= 1.31D+02 ExpMxC= 1.31D+02 IAcc=3 IRadAn=         5 AccDes= 0.00D+00
 Harris functional with IExCor=  205 and IRadAn=       5 diagonalized for initial guess.
 HarFok:  IExCor=  205 AccDes= 0.00D+00 IRadAn=         5 IDoV= 1 UseB2=F ITyADJ=14 ICtDFT=  3500011
 ScaDFX=  1.000000  1.000000  1.000000  1.000000  1.000000  1.000000
 ScaDFX=  1.000000  1.000000  1.000000  1.000000  1.000000  1.000000
 FoFCou: FMM=F IPFlag=           0 FMFlag=      100000 FMFlg1=           0
         NFxFlg=           0 DoJE=T BraDBF=F KetDBF=T FulRan=T
         wScrn=  0.000000 ICntrl=       500 IOpCl=  0 I1Cent=   200000004 NGrid=           0
         NMat0=    1 NMatS0=      1 NMatT0=    0 NMatD0=    1 NMtDS0=    0 NMtDT0=    0
 Petite list used in FoFCou.
 Harris En= -152.348321034266    
 JPrj=0 DoOrth=F DoCkMO=F.
 Leave Link  401 at Wed Nov 13 12:36:32 2019, MaxMem=   100000000 cpu:               0.6 elap:               0.6
 (Enter /Users/hhratchian/.gaussian/gdv-current/gdv/l502.exe)
 Keep R1 ints in memory in canonical form, NReq=838841.
 FoFCou: FMM=F IPFlag=           0 FMFlag=           0 FMFlg1=           0
         NFxFlg=           0 DoJE=F BraDBF=F KetDBF=F FulRan=T
         wScrn=  0.000000 ICntrl=       600 IOpCl=  0 I1Cent=           0 NGrid=           0
         NMat0=    1 NMatS0=    231 NMatT0=    0 NMatD0=    1 NMtDS0=    0 NMtDT0=    0
 Symmetry not used in FoFCou.
 Two-electron integral symmetry not used.
 Closed shell SCF:
 Using DIIS extrapolation, IDIIS=  1040.
 NGot=   100000000 LenX=    99971327 LenY=    99970445
 Requested convergence on RMS density matrix=1.00D-08 within 128 cycles.
 Requested convergence on MAX density matrix=1.00D-06.
 Requested convergence on             energy=1.00D-06.
 No special actions if energy rises.

 Cycle   1  Pass 1  IDiag  1:
 E= -152.044466537452    
 DIIS: error= 4.82D-02 at cycle   1 NSaved=   1.
 NSaved= 1 IEnMin= 1 EnMin= -152.044466537452     IErMin= 1 ErrMin= 4.82D-02
 ErrMax= 4.82D-02  0.00D+00 EMaxC= 1.00D-01 BMatC= 7.64D-02 BMatP= 7.64D-02
 IDIUse=3 WtCom= 5.18D-01 WtEn= 4.82D-01
 Coeff-Com:  0.100D+01
 Coeff-En:   0.100D+01
 Coeff:      0.100D+01
 Gap=     0.918 Goal=   None    Shift=    0.000
 GapD=    0.918 DampG=2.000 DampE=0.500 DampFc=1.0000 IDamp=-1.
 RMSDP=1.79D-02 MaxDP=1.08D-01              OVMax= 0.00D+00

 Cycle   2  Pass 1  IDiag  1:
 E= -152.127014111343     Delta-E=       -0.082547573891 Rises=F Damp=F
 DIIS: error= 6.61D-03 at cycle   2 NSaved=   2.
 NSaved= 2 IEnMin= 2 EnMin= -152.127014111343     IErMin= 2 ErrMin= 6.61D-03
 ErrMax= 6.61D-03  0.00D+00 EMaxC= 1.00D-01 BMatC= 1.48D-03 BMatP= 7.64D-02
 IDIUse=3 WtCom= 9.34D-01 WtEn= 6.61D-02
 Coeff-Com:  0.529D-01 0.947D+00
 Coeff-En:   0.000D+00 0.100D+01
 Coeff:      0.494D-01 0.951D+00
 Gap=     0.914 Goal=   None    Shift=    0.000
 RMSDP=2.53D-03 MaxDP=2.18D-02 DE=-8.25D-02 OVMax= 0.00D+00

 Cycle   3  Pass 1  IDiag  1:
 E= -152.128638323225     Delta-E=       -0.001624211882 Rises=F Damp=F
 DIIS: error= 9.67D-04 at cycle   3 NSaved=   3.
 NSaved= 3 IEnMin= 3 EnMin= -152.128638323225     IErMin= 3 ErrMin= 9.67D-04
 ErrMax= 9.67D-04  0.00D+00 EMaxC= 1.00D-01 BMatC= 3.82D-05 BMatP= 1.48D-03
 IDIUse=3 WtCom= 9.90D-01 WtEn= 9.67D-03
 Coeff-Com: -0.101D-01 0.236D-01 0.986D+00
 Coeff-En:   0.000D+00 0.000D+00 0.100D+01
 Coeff:     -0.997D-02 0.234D-01 0.987D+00
 Gap=     0.909 Goal=   None    Shift=    0.000
 RMSDP=5.10D-04 MaxDP=2.53D-03 DE=-1.62D-03 OVMax= 0.00D+00

 Cycle   4  Pass 1  IDiag  1:
 E= -152.128703060355     Delta-E=       -0.000064737129 Rises=F Damp=F
 DIIS: error= 1.90D-04 at cycle   4 NSaved=   4.
 NSaved= 4 IEnMin= 4 EnMin= -152.128703060355     IErMin= 4 ErrMin= 1.90D-04
 ErrMax= 1.90D-04  0.00D+00 EMaxC= 1.00D-01 BMatC= 1.85D-06 BMatP= 3.82D-05
 IDIUse=3 WtCom= 9.98D-01 WtEn= 1.90D-03
 Coeff-Com:  0.115D-03-0.266D-01-0.125D+00 0.115D+01
 Coeff-En:   0.000D+00 0.000D+00 0.000D+00 0.100D+01
 Coeff:      0.115D-03-0.266D-01-0.125D+00 0.115D+01
 Gap=     0.909 Goal=   None    Shift=    0.000
 RMSDP=1.40D-04 MaxDP=8.16D-04 DE=-6.47D-05 OVMax= 0.00D+00

 Cycle   5  Pass 1  IDiag  1:
 E= -152.128706833177     Delta-E=       -0.000003772822 Rises=F Damp=F
 DIIS: error= 3.58D-05 at cycle   5 NSaved=   5.
 NSaved= 5 IEnMin= 5 EnMin= -152.128706833177     IErMin= 5 ErrMin= 3.58D-05
 ErrMax= 3.58D-05  0.00D+00 EMaxC= 1.00D-01 BMatC= 3.46D-08 BMatP= 1.85D-06
 IDIUse=1 WtCom= 1.00D+00 WtEn= 0.00D+00
 Coeff-Com:  0.255D-03 0.523D-03-0.233D-01-0.517D-01 0.107D+01
 Coeff:      0.255D-03 0.523D-03-0.233D-01-0.517D-01 0.107D+01
 Gap=     0.909 Goal=   None    Shift=    0.000
 RMSDP=2.31D-05 MaxDP=1.40D-04 DE=-3.77D-06 OVMax= 0.00D+00

 Cycle   6  Pass 1  IDiag  1:
 E= -152.128706915448     Delta-E=       -0.000000082271 Rises=F Damp=F
 DIIS: error= 5.58D-06 at cycle   6 NSaved=   6.
 NSaved= 6 IEnMin= 6 EnMin= -152.128706915448     IErMin= 6 ErrMin= 5.58D-06
 ErrMax= 5.58D-06  0.00D+00 EMaxC= 1.00D-01 BMatC= 1.17D-09 BMatP= 3.46D-08
 IDIUse=1 WtCom= 1.00D+00 WtEn= 0.00D+00
 Coeff-Com: -0.799D-04 0.194D-03 0.947D-02 0.167D-02-0.361D+00 0.135D+01
 Coeff:     -0.799D-04 0.194D-03 0.947D-02 0.167D-02-0.361D+00 0.135D+01
 Gap=     0.909 Goal=   None    Shift=    0.000
 RMSDP=4.48D-06 MaxDP=2.26D-05 DE=-8.23D-08 OVMax= 0.00D+00

 Cycle   7  Pass 1  IDiag  1:
 E= -152.128706918587     Delta-E=       -0.000000003140 Rises=F Damp=F
 DIIS: error= 1.15D-06 at cycle   7 NSaved=   7.
 NSaved= 7 IEnMin= 7 EnMin= -152.128706918587     IErMin= 7 ErrMin= 1.15D-06
 ErrMax= 1.15D-06  0.00D+00 EMaxC= 1.00D-01 BMatC= 4.05D-11 BMatP= 1.17D-09
 IDIUse=1 WtCom= 1.00D+00 WtEn= 0.00D+00
 Coeff-Com: -0.919D-05-0.282D-04 0.841D-03 0.236D-02-0.405D-01 0.211D-01
 Coeff-Com:  0.102D+01
 Coeff:     -0.919D-05-0.282D-04 0.841D-03 0.236D-02-0.405D-01 0.211D-01
 Coeff:      0.102D+01
 Gap=     0.909 Goal=   None    Shift=    0.000
 RMSDP=7.38D-07 MaxDP=4.08D-06 DE=-3.14D-09 OVMax= 0.00D+00

 Cycle   8  Pass 1  IDiag  1:
 E= -152.128706918693     Delta-E=       -0.000000000106 Rises=F Damp=F
 DIIS: error= 3.00D-07 at cycle   8 NSaved=   8.
 NSaved= 8 IEnMin= 8 EnMin= -152.128706918693     IErMin= 8 ErrMin= 3.00D-07
 ErrMax= 3.00D-07  0.00D+00 EMaxC= 1.00D-01 BMatC= 4.42D-12 BMatP= 4.05D-11
 IDIUse=1 WtCom= 1.00D+00 WtEn= 0.00D+00
 Coeff-Com:  0.101D-04-0.102D-04-0.110D-02-0.650D-03 0.423D-01-0.127D+00
 Coeff-Com: -0.247D+00 0.133D+01
 Coeff:      0.101D-04-0.102D-04-0.110D-02-0.650D-03 0.423D-01-0.127D+00
 Coeff:     -0.247D+00 0.133D+01
 Gap=     0.909 Goal=   None    Shift=    0.000
 RMSDP=3.20D-07 MaxDP=1.97D-06 DE=-1.06D-10 OVMax= 0.00D+00

 Cycle   9  Pass 1  IDiag  1:
 E= -152.128706918706     Delta-E=       -0.000000000013 Rises=F Damp=F
 DIIS: error= 4.26D-08 at cycle   9 NSaved=   9.
 NSaved= 9 IEnMin= 9 EnMin= -152.128706918706     IErMin= 9 ErrMin= 4.26D-08
 ErrMax= 4.26D-08  0.00D+00 EMaxC= 1.00D-01 BMatC= 7.52D-14 BMatP= 4.42D-12
 IDIUse=1 WtCom= 1.00D+00 WtEn= 0.00D+00
 Coeff-Com: -0.289D-05 0.291D-05 0.314D-03 0.195D-03-0.123D-01 0.389D-01
 Coeff-Com:  0.575D-01-0.426D+00 0.134D+01
 Coeff:     -0.289D-05 0.291D-05 0.314D-03 0.195D-03-0.123D-01 0.389D-01
 Coeff:      0.575D-01-0.426D+00 0.134D+01
 Gap=     0.909 Goal=   None    Shift=    0.000
 RMSDP=4.01D-08 MaxDP=1.71D-07 DE=-1.28D-11 OVMax= 0.00D+00

 Cycle  10  Pass 1  IDiag  1:
 E= -152.128706918706     Delta-E=        0.000000000000 Rises=F Damp=F
 DIIS: error= 1.02D-08 at cycle  10 NSaved=  10.
 NSaved=10 IEnMin=10 EnMin= -152.128706918706     IErMin=10 ErrMin= 1.02D-08
 ErrMax= 1.02D-08  0.00D+00 EMaxC= 1.00D-01 BMatC= 2.34D-15 BMatP= 7.52D-14
 IDIUse=1 WtCom= 1.00D+00 WtEn= 0.00D+00
 Coeff-Com:  0.662D-06-0.586D-06-0.716D-04-0.505D-04 0.283D-02-0.905D-02
 Coeff-Com: -0.140D-01 0.107D+00-0.427D+00 0.134D+01
 Coeff:      0.662D-06-0.586D-06-0.716D-04-0.505D-04 0.283D-02-0.905D-02
 Coeff:     -0.140D-01 0.107D+00-0.427D+00 0.134D+01
 Gap=     0.909 Goal=   None    Shift=    0.000
 RMSDP=7.06D-09 MaxDP=5.66D-08 DE=-1.14D-13 OVMax= 0.00D+00

 SCF Done:  E(RHF) =  -152.128706919     A.U. after   10 cycles
            NFock= 10  Conv=0.71D-08     -V/T= 2.0082
 KE= 1.508955347303D+02 PE=-5.206109346062D+02 EE= 1.359707717779D+02
 Leave Link  502 at Wed Nov 13 12:36:32 2019, MaxMem=   100000000 cpu:               0.1 elap:               0.2
 (Enter /Users/hhratchian/.gaussian/gdv-current/gdv/l601.exe)
 Copying SCF densities to generalized density rwf, IOpCl= 0 IROHF=0.

 **********************************************************************

            Population analysis using the SCF Density.

 **********************************************************************

 Orbital symmetries:
       Occupied  (A) (A) (A) (A) (A) (A) (A) (A) (A) (A) (A) (A)
                 (A)
       Virtual   (A) (A) (A) (A) (A) (A) (A) (A)
 The electronic state is 1-A.
 Alpha  occ. eigenvalues --  -20.24237 -11.09139 -11.04179  -1.27829  -0.96748
 Alpha  occ. eigenvalues --   -0.80400  -0.62429  -0.57393  -0.54309  -0.49963
 Alpha  occ. eigenvalues --   -0.48137  -0.39401  -0.34528
 Alpha virt. eigenvalues --    0.56374   0.63371   0.66504   0.69600   0.71882
 Alpha virt. eigenvalues --    0.76095   0.76519   0.78995
          Condensed to atoms (all electrons):
               1          2          3          4          5          6
     1  C    4.704699   0.270292   0.382011   0.376963   0.354477  -0.040882
     2  O    0.270292   7.837478  -0.016901  -0.017102  -0.018978   0.260092
     3  H    0.382011  -0.016901   0.612110  -0.023743  -0.022947   0.003318
     4  H    0.376963  -0.017102  -0.023743   0.645712  -0.025581  -0.003027
     5  C    0.354477  -0.018978  -0.022947  -0.025581   4.752073  -0.002689
     6  H   -0.040882   0.260092   0.003318  -0.003027  -0.002689   0.596572
     7  H   -0.018857   0.000604  -0.001508  -0.001639   0.381917  -0.000014
     8  H   -0.021665  -0.001130   0.001785  -0.002345   0.383536   0.000642
     9  H   -0.020987  -0.000591  -0.002530   0.001865   0.384371  -0.000006
               7          8          9
     1  C   -0.018857  -0.021665  -0.020987
     2  O    0.000604  -0.001130  -0.000591
     3  H   -0.001508   0.001785  -0.002530
     4  H   -0.001639  -0.002345   0.001865
     5  C    0.381917   0.383536   0.384371
     6  H   -0.000014   0.000642  -0.000006
     7  H    0.618210  -0.020377  -0.020222
     8  H   -0.020377   0.626503  -0.021271
     9  H   -0.020222  -0.021271   0.612883
 Mulliken charges:
               1
     1  C    0.013948
     2  O   -0.313763
     3  H    0.068405
     4  H    0.048899
     5  C   -0.186177
     6  H    0.185993
     7  H    0.061886
     8  H    0.054323
     9  H    0.066487
 Sum of Mulliken charges =   0.00000
 Mulliken charges with hydrogens summed into heavy atoms:
               1
     1  C    0.131252
     2  O   -0.127770
     5  C   -0.003481
 Electronic spatial extent (au):  <R**2>=            190.3491
 Charge=              0.0000 electrons
 Dipole moment (field-independent basis, Debye):
    X=              1.0465    Y=             -0.1493    Z=              1.0576  Tot=              1.4953
 Quadrupole moment (field-independent basis, Debye-Ang):
   XX=            -20.5765   YY=            -17.3901   ZZ=            -17.8756
   XY=              0.7287   XZ=             -1.5036   YZ=             -1.0250
 Traceless Quadrupole moment (field-independent basis, Debye-Ang):
   XX=             -1.9624   YY=              1.2240   ZZ=              0.7384
   XY=              0.7287   XZ=             -1.5036   YZ=             -1.0250
 Octapole moment (field-independent basis, Debye-Ang**2):
  XXX=             -4.1406  YYY=             -2.4142  ZZZ=             -0.2127  XYY=             -3.3401
  XXY=             -0.9104  XXZ=              1.6767  XZZ=             -2.6539  YZZ=             -0.9223
  YYZ=              0.3867  XYZ=              1.1725
 Hexadecapole moment (field-independent basis, Debye-Ang**3):
 XXXX=           -139.9997 YYYY=            -51.1965 ZZZZ=            -28.5859 XXXY=              5.6801
 XXXZ=             -1.6072 YYYX=              3.6134 YYYZ=             -1.5846 ZZZX=             -0.4171
 ZZZY=             -0.1929 XXYY=            -29.8100 XXZZ=            -27.3754 YYZZ=            -11.9452
 XXYZ=             -1.1615 YYXZ=             -0.6070 ZZXY=              0.4959
 N-N= 8.161592117932D+01 E-N=-5.206109346193D+02  KE= 1.508955347303D+02
 No NMR shielding tensors so no spin-rotation constants.
 Leave Link  601 at Wed Nov 13 12:36:32 2019, MaxMem=   100000000 cpu:               0.1 elap:               0.1
 (Enter /Users/hhratchian/.gaussian/gdv-current/gdv/l701.exe)
 ... and contract with generalized density number  0.
 Compute integral first derivatives.
 Leave Link  701 at Wed Nov 13 12:36:32 2019, MaxMem=   100000000 cpu:               0.1 elap:               0.1
 (Enter /Users/hhratchian/.gaussian/gdv-current/gdv/l702.exe)
 L702 exits ... SP integral derivatives will be done elsewhere.
 Leave Link  702 at Wed Nov 13 12:36:32 2019, MaxMem=   100000000 cpu:               0.0 elap:               0.0
 (Enter /Users/hhratchian/.gaussian/gdv-current/gdv/l703.exe)
 Integral derivatives from FoFJK, PRISM(SPDF).
 Compute integral first derivatives, UseDBF=F ICtDFT=           0.
 Calling FoFJK, ICntrl=      2127 FMM=F ISym2X=0 I1Cent= 0 IOpClX= 0 NMat=1 NMatS=1 NMatT=0.
 FoFJK:  IHMeth= 1 ICntrl=    2127 DoSepK=F KAlg= 0 I1Cent=           0 FoldK=F
 IRaf=         0 NMat=       1 IRICut=       1 DoRegI=T DoRafI=F ISym2E= 0 IDoP0=0 IntGTp=1.
 FoFCou: FMM=F IPFlag=           0 FMFlag=      100000 FMFlg1=         800
         NFxFlg=           0 DoJE=F BraDBF=F KetDBF=F FulRan=T
         wScrn=  0.000000 ICntrl=      2127 IOpCl=  0 I1Cent=           0 NGrid=           0
         NMat0=    1 NMatS0=      1 NMatT0=    0 NMatD0=    1 NMtDS0=    0 NMtDT0=    0
 Symmetry not used in FoFCou.
 Leave Link  703 at Wed Nov 13 12:36:32 2019, MaxMem=   100000000 cpu:               0.1 elap:               0.1
 (Enter /Users/hhratchian/.gaussian/gdv-current/gdv/l716.exe)
 Dipole        = 4.11731005D-01-5.87196119D-02 4.16072553D-01
 ***** Axes restored to original set *****
 -------------------------------------------------------------------
 Center     Atomic                   Forces (Hartrees/Bohr)
 Number     Number              X              Y              Z
 -------------------------------------------------------------------
      1        6           0.000187914   -0.025556211    0.015296272
      2        8          -0.022517335    0.032765959   -0.050812592
      3        1          -0.006839490    0.000820665   -0.001665002
      4        1           0.003045773    0.009048311    0.003112274
      5        6           0.007711792    0.005408728   -0.000392727
      6        1           0.013400222   -0.018811593    0.033791409
      7        1          -0.000345063   -0.005823379   -0.000448474
      8        1           0.003357924    0.001561601   -0.003621758
      9        1           0.001998263    0.000585920    0.004740597
 -------------------------------------------------------------------
 Cartesian Forces:  Max     0.050812592 RMS     0.016162145
 Leave Link  716 at Wed Nov 13 12:36:32 2019, MaxMem=   100000000 cpu:               0.0 elap:               0.0
 (Enter /Users/hhratchian/.gaussian/gdv-current/gdv/l103.exe)

 GradGradGradGradGradGradGradGradGradGradGradGradGradGradGradGradGradGrad
 Berny optimization.
 FormGI is forming the generalized inverse of G from B-inverse, IUseBI=4.
 Internal  Forces:  Max     0.037422726 RMS     0.009809700
 Search for a local minimum.
 Step number   1 out of a maximum of   43
 All quantities printed in internal units (Hartrees-Bohrs-Radians)
 RMS Force = .98097D-02 SwitMx=.10000D-02 MixMth= 1
 Mixed Optimization -- RFO/linear search
 Second derivative matrix not updated -- first step.
 ITU=  0
     Eigenvalues ---    0.00237   0.01295   0.05139   0.05720   0.05720
     Eigenvalues ---    0.05816   0.11239   0.13704   0.16000   0.16000
     Eigenvalues ---    0.16000   0.16000   0.22071   0.28519   0.34813
     Eigenvalues ---    0.34813   0.34813   0.34813   0.34813   0.40989
     Eigenvalues ---    0.55473
 RFO step:  Lambda=-1.29149631D-02 EMin= 2.36824211D-03
 Linear search not attempted -- first point.
 Iteration  1 RMS(Cart)=  0.05033643 RMS(Int)=  0.00261596
 Iteration  2 RMS(Cart)=  0.00353042 RMS(Int)=  0.00104193
 Iteration  3 RMS(Cart)=  0.00000983 RMS(Int)=  0.00104190
 Iteration  4 RMS(Cart)=  0.00000000 RMS(Int)=  0.00104190
 ITry= 1 IFail=0 DXMaxC= 1.19D-01 DCOld= 1.00D+10 DXMaxT= 3.00D-01 DXLimC= 3.00D+00 Rises=F
 Variable       Old X    -DE/DX   Delta X   Delta X   Delta X     New X
                                 (Linear)    (Quad)   (Total)
    R1        2.70231   0.00080   0.00000   0.00189   0.00189   2.70420
    R2        2.05980   0.00171   0.00000   0.00474   0.00474   2.06454
    R3        2.05980   0.00679   0.00000   0.01880   0.01880   2.07861
    R4        2.91018   0.00967   0.00000   0.03244   0.03244   2.94262
    R5        1.81414   0.03742   0.00000   0.06593   0.06593   1.88006
    R6        2.05980  -0.00380   0.00000  -0.01051  -0.01051   2.04929
    R7        2.05980  -0.00375   0.00000  -0.01038  -0.01038   2.04942
    R8        2.05980  -0.00437   0.00000  -0.01209  -0.01209   2.04771
    A1        1.91063  -0.01235   0.00000  -0.09046  -0.08975   1.82088
    A2        1.91063  -0.00007   0.00000   0.04482   0.04191   1.95254
    A3        1.91063   0.01698   0.00000   0.08162   0.07995   1.99059
    A4        1.91063  -0.00130   0.00000  -0.03811  -0.03784   1.87279
    A5        1.91063   0.00102   0.00000   0.00136   0.00269   1.91332
    A6        1.91063  -0.00429   0.00000   0.00077  -0.00235   1.90829
    A7        1.91063  -0.03007   0.00000  -0.17390  -0.17390   1.73673
    A8        1.91063   0.00522   0.00000   0.03128   0.03096   1.94160
    A9        1.91063   0.00355   0.00000   0.01966   0.01944   1.93007
   A10        1.91063   0.00231   0.00000   0.01313   0.01295   1.92358
   A11        1.91063  -0.00433   0.00000  -0.02461  -0.02494   1.88569
   A12        1.91063  -0.00351   0.00000  -0.01858  -0.01885   1.89178
   A13        1.91063  -0.00324   0.00000  -0.02088  -0.02096   1.88967
    D1        3.14159   0.00459   0.00000   0.03011   0.02917  -3.11242
    D2       -1.04720  -0.00460   0.00000  -0.04452  -0.04625  -1.09345
    D3        1.04720   0.00050   0.00000   0.03386   0.03653   1.08373
    D4        3.14159  -0.00393   0.00000  -0.05899  -0.05940   3.08219
    D5       -1.04720  -0.00385   0.00000  -0.05794  -0.05827  -1.10546
    D6        1.04720  -0.00424   0.00000  -0.06343  -0.06387   0.98333
    D7        1.04720   0.00017   0.00000   0.00099   0.00093   1.04813
    D8        3.14159   0.00024   0.00000   0.00204   0.00206  -3.13953
    D9       -1.04720  -0.00014   0.00000  -0.00345  -0.00354  -1.05074
   D10       -1.04720   0.00376   0.00000   0.04636   0.04679  -1.00041
   D11        1.04720   0.00384   0.00000   0.04741   0.04792   1.09511
   D12        3.14159   0.00345   0.00000   0.04192   0.04231  -3.09928
         Item               Value     Threshold  Converged?
 Maximum Force            0.037423     0.000450     NO 
 RMS     Force            0.009810     0.000300     NO 
 Maximum Displacement     0.119132     0.001800     NO 
 RMS     Displacement     0.050824     0.001200     NO 
 Predicted change in Energy=-7.020555D-03
 Lowest energy point so far.  Saving SCF results.
 GradGradGradGradGradGradGradGradGradGradGradGradGradGradGradGradGradGrad

 Leave Link  103 at Wed Nov 13 12:36:33 2019, MaxMem=   100000000 cpu:               0.0 elap:               0.1
 (Enter /Users/hhratchian/.gaussian/gdv-current/gdv/l202.exe)
                          Input orientation:                          
 ---------------------------------------------------------------------
 Center     Atomic      Atomic             Coordinates (Angstroms)
 Number     Number       Type             X           Y           Z
 ---------------------------------------------------------------------
      1          6           0       -0.106753    0.552565    0.059469
      2          8           0       -1.285033   -0.227940   -0.164660
      3          1           0       -0.123252    1.301541   -0.735728
      4          1           0       -0.148319    1.091521    1.017431
      5          6           0        1.218140   -0.262063   -0.016759
      6          1           0       -1.213667   -0.857277    0.602569
      7          1           0        2.082724    0.381981    0.100304
      8          1           0        1.249907   -1.012473    0.765564
      9          1           0        1.293719   -0.765283   -0.973444
 ---------------------------------------------------------------------
                    Distance matrix (angstroms):
                    1          2          3          4          5
     1  C    0.000000
     2  O    1.431002   0.000000
     3  H    1.092508   2.003788   0.000000
     4  H    1.099951   2.104860   1.765872   0.000000
     5  C    1.557168   2.507771   2.181995   2.183793   0.000000
     6  H    1.872931   0.994886   2.764153   2.259401   2.579057
     7  H    2.196492   3.432783   2.531970   2.514384   1.084436
     8  H    2.188251   2.811892   3.081250   2.538753   1.084507
     9  H    2.182878   2.755510   2.517156   3.080711   1.083600
                    6          7          8          9
     6  H    0.000000
     7  H    3.557278   0.000000
     8  H    2.473834   1.755179   0.000000
     9  H    2.962983   1.758317   1.757035   0.000000
 Stoichiometry    C2H6O
 Framework group  C1[X(C2H6O)]
 Deg. of freedom    21
 Full point group                 C1      NOp   1
 RotChk:  IX=0 Diff= 7.99D-02
 Largest Abelian subgroup         C1      NOp   1
 Largest concise Abelian subgroup C1      NOp   1
                         Standard orientation:                         
 ---------------------------------------------------------------------
 Center     Atomic      Atomic             Coordinates (Angstroms)
 Number     Number       Type             X           Y           Z
 ---------------------------------------------------------------------
      1          6           0       -0.102635    0.550166    0.049016
      2          8           0       -1.263063   -0.271381   -0.112946
      3          1           0       -0.158820    1.263277   -0.776751
      4          1           0       -0.137405    1.128743    0.983859
      5          6           0        1.242813   -0.230298   -0.024581
      6          1           0       -1.156101   -0.864715    0.678453
      7          1           0        2.091173    0.441714    0.043882
      8          1           0        1.314001   -0.944980    0.788017
      9          1           0        1.310586   -0.772198   -0.960498
 ---------------------------------------------------------------------
 Rotational constants (GHZ):          34.6244289           8.8601240           7.8902402
 Marking standard orientation as input orientation.
 Leave Link  202 at Wed Nov 13 12:36:33 2019, MaxMem=   100000000 cpu:               0.0 elap:               0.0
 (Enter /Users/hhratchian/.gaussian/gdv-current/gdv/l301.exe)
 Standard basis: STO-3G (5D, 7F)
 Ernie: Thresh=  0.10000D-02 Tol=  0.10000D-05 Strict=F.
 There are    21 symmetry adapted cartesian basis functions of A   symmetry.
 There are    21 symmetry adapted basis functions of A   symmetry.
    21 basis functions,    63 primitive gaussians,    21 cartesian basis functions
    13 alpha electrons       13 beta electrons
       nuclear repulsion energy        80.8837349837 Hartrees.
 IExCor=    0 DFT=F Ex=HF Corr=None N6=None ScaHFX=  1.000000
 ScaDFX=  1.000000  1.000000  1.000000  1.000000  1.000000  0.000000
 ScaDFX=  0.000000  0.000000  0.000000  0.000000  0.000000  0.000000
 IRadAn=      5 IRanWt=     -1 IRanGd=            0 ICorTp=0 IEmpDi=  4
 NAtoms=    9 NActive=    9 NUniq=    9 SFac= 1.00D+00 NAtFMM=   60 NAOKFM=F Big=F
 Integral buffers will be    131072 words long.
 Raffenetti 1 integral format.
 Two-electron integral symmetry is turned on.
 Leave Link  301 at Wed Nov 13 12:36:33 2019, MaxMem=   100000000 cpu:               0.0 elap:               0.0
 (Enter /Users/hhratchian/.gaussian/gdv-current/gdv/l302.exe)
 NPDir=0 NMtPBC=     1 NCelOv=     1 NCel=       1 NClECP=     1 NCelD=      1
         NCelK=      1 NCelE2=     1 NClLst=     1 CellRange=     0.0.
 One-electron integrals computed using PRISM.
 One-electron integral symmetry used in STVInt
 NBasis=    21 RedAO= T EigKep=  2.14D-01  NBF=    21
 NBsUse=    21 1.00D-06 EigRej= -1.00D+00 NBFU=    21
 Leave Link  302 at Wed Nov 13 12:36:33 2019, MaxMem=   100000000 cpu:               0.1 elap:               0.1
 (Enter /Users/hhratchian/.gaussian/gdv-current/gdv/l303.exe)
 DipDrv:  MaxL=1.
 Leave Link  303 at Wed Nov 13 12:36:33 2019, MaxMem=   100000000 cpu:               0.0 elap:               0.0
 (Enter /Users/hhratchian/.gaussian/gdv-current/gdv/l401.exe)
 Initial guess from the checkpoint file:  "test001.chk"
 B after Tr=     0.000000    0.000000    0.000000
         Rot=    0.999841    0.014249   -0.005472   -0.009250 Ang=   2.05 deg.
 Guess basis will be translated and rotated to current coordinates.
 JPrj=2 DoOrth=T DoCkMO=T.
 Generating alternative initial guess.
 ExpMin= 1.69D-01 ExpMax= 1.31D+02 ExpMxC= 1.31D+02 IAcc=3 IRadAn=         5 AccDes= 0.00D+00
 Harris functional with IExCor=  205 and IRadAn=       5 diagonalized for initial guess.
 HarFok:  IExCor=  205 AccDes= 0.00D+00 IRadAn=         5 IDoV= 1 UseB2=F ITyADJ=14 ICtDFT=  3500011
 ScaDFX=  1.000000  1.000000  1.000000  1.000000  1.000000  1.000000
 ScaDFX=  1.000000  1.000000  1.000000  1.000000  1.000000  1.000000
 FoFCou: FMM=F IPFlag=           0 FMFlag=      100000 FMFlg1=           0
         NFxFlg=           0 DoJE=T BraDBF=F KetDBF=T FulRan=T
         wScrn=  0.000000 ICntrl=       500 IOpCl=  0 I1Cent=   200000004 NGrid=           0
         NMat0=    1 NMatS0=      1 NMatT0=    0 NMatD0=    1 NMtDS0=    0 NMtDT0=    0
 Petite list used in FoFCou.
 Harris En= -152.349131003396    
 Leave Link  401 at Wed Nov 13 12:36:33 2019, MaxMem=   100000000 cpu:               0.6 elap:               0.6
 (Enter /Users/hhratchian/.gaussian/gdv-current/gdv/l502.exe)
 Keep R1 ints in memory in canonical form, NReq=838840.
 FoFCou: FMM=F IPFlag=           0 FMFlag=           0 FMFlg1=           0
         NFxFlg=           0 DoJE=F BraDBF=F KetDBF=F FulRan=T
         wScrn=  0.000000 ICntrl=       600 IOpCl=  0 I1Cent=           0 NGrid=           0
         NMat0=    1 NMatS0=    231 NMatT0=    0 NMatD0=    1 NMtDS0=    0 NMtDT0=    0
 Symmetry not used in FoFCou.
 Two-electron integral symmetry not used.
 Closed shell SCF:
 Using DIIS extrapolation, IDIIS=  1040.
 NGot=   100000000 LenX=    99971327 LenY=    99970445
 Requested convergence on RMS density matrix=1.00D-08 within 128 cycles.
 Requested convergence on MAX density matrix=1.00D-06.
 Requested convergence on             energy=1.00D-06.
 No special actions if energy rises.

 Cycle   1  Pass 1  IDiag  1:
 E= -152.128808527456    
 DIIS: error= 7.96D-03 at cycle   1 NSaved=   1.
 NSaved= 1 IEnMin= 1 EnMin= -152.128808527456     IErMin= 1 ErrMin= 7.96D-03
 ErrMax= 7.96D-03  0.00D+00 EMaxC= 1.00D-01 BMatC= 1.11D-03 BMatP= 1.11D-03
 IDIUse=3 WtCom= 9.20D-01 WtEn= 7.96D-02
 Coeff-Com:  0.100D+01
 Coeff-En:   0.100D+01
 Coeff:      0.100D+01
 Gap=     1.044 Goal=   None    Shift=    0.000
 GapD=    1.044 DampG=2.000 DampE=1.000 DampFc=2.0000 IDamp=-1.
 RMSDP=3.00D-03 MaxDP=1.92D-02              OVMax= 0.00D+00

 Cycle   2  Pass 1  IDiag  1:
 E= -152.131085265765     Delta-E=       -0.002276738309 Rises=F Damp=F
 DIIS: error= 2.46D-03 at cycle   2 NSaved=   2.
 NSaved= 2 IEnMin= 2 EnMin= -152.131085265765     IErMin= 2 ErrMin= 2.46D-03
 ErrMax= 2.46D-03  0.00D+00 EMaxC= 1.00D-01 BMatC= 1.33D-04 BMatP= 1.11D-03
 IDIUse=3 WtCom= 9.75D-01 WtEn= 2.46D-02
 Coeff-Com: -0.271D+00 0.127D+01
 Coeff-En:   0.000D+00 0.100D+01
 Coeff:     -0.264D+00 0.126D+01
 Gap=     0.925 Goal=   None    Shift=    0.000
 RMSDP=1.31D-03 MaxDP=9.43D-03 DE=-2.28D-03 OVMax= 0.00D+00

 Cycle   3  Pass 1  IDiag  1:
 E= -152.131427776825     Delta-E=       -0.000342511060 Rises=F Damp=F
 DIIS: error= 6.55D-04 at cycle   3 NSaved=   3.
 NSaved= 3 IEnMin= 3 EnMin= -152.131427776825     IErMin= 3 ErrMin= 6.55D-04
 ErrMax= 6.55D-04  0.00D+00 EMaxC= 1.00D-01 BMatC= 9.56D-06 BMatP= 1.33D-04
 IDIUse=3 WtCom= 9.93D-01 WtEn= 6.55D-03
 Coeff-Com: -0.598D-01-0.489D-01 0.111D+01
 Coeff-En:   0.000D+00 0.000D+00 0.100D+01
 Coeff:     -0.594D-01-0.486D-01 0.111D+01
 Gap=     0.924 Goal=   None    Shift=    0.000
 RMSDP=4.13D-04 MaxDP=2.51D-03 DE=-3.43D-04 OVMax= 0.00D+00

 Cycle   4  Pass 1  IDiag  1:
 E= -152.131455351756     Delta-E=       -0.000027574931 Rises=F Damp=F
 DIIS: error= 1.72D-04 at cycle   4 NSaved=   4.
 NSaved= 4 IEnMin= 4 EnMin= -152.131455351756     IErMin= 4 ErrMin= 1.72D-04
 ErrMax= 1.72D-04  0.00D+00 EMaxC= 1.00D-01 BMatC= 6.04D-07 BMatP= 9.56D-06
 IDIUse=3 WtCom= 9.98D-01 WtEn= 1.72D-03
 Coeff-Com:  0.245D-01-0.704D-01-0.153D+00 0.120D+01
 Coeff-En:   0.000D+00 0.000D+00 0.000D+00 0.100D+01
 Coeff:      0.244D-01-0.702D-01-0.153D+00 0.120D+01
 Gap=     0.924 Goal=   None    Shift=    0.000
 RMSDP=1.01D-04 MaxDP=8.93D-04 DE=-2.76D-05 OVMax= 0.00D+00

 Cycle   5  Pass 1  IDiag  1:
 E= -152.131457100747     Delta-E=       -0.000001748991 Rises=F Damp=F
 DIIS: error= 3.62D-05 at cycle   5 NSaved=   5.
 NSaved= 5 IEnMin= 5 EnMin= -152.131457100747     IErMin= 5 ErrMin= 3.62D-05
 ErrMax= 3.62D-05  0.00D+00 EMaxC= 1.00D-01 BMatC= 3.09D-08 BMatP= 6.04D-07
 IDIUse=1 WtCom= 1.00D+00 WtEn= 0.00D+00
 Coeff-Com: -0.720D-03 0.150D-01-0.393D-01-0.207D+00 0.123D+01
 Coeff:     -0.720D-03 0.150D-01-0.393D-01-0.207D+00 0.123D+01
 Gap=     0.924 Goal=   None    Shift=    0.000
 RMSDP=2.48D-05 MaxDP=2.13D-04 DE=-1.75D-06 OVMax= 0.00D+00

 Cycle   6  Pass 1  IDiag  1:
 E= -152.131457197794     Delta-E=       -0.000000097047 Rises=F Damp=F
 DIIS: error= 9.35D-06 at cycle   6 NSaved=   6.
 NSaved= 6 IEnMin= 6 EnMin= -152.131457197794     IErMin= 6 ErrMin= 9.35D-06
 ErrMax= 9.35D-06  0.00D+00 EMaxC= 1.00D-01 BMatC= 1.64D-09 BMatP= 3.09D-08
 IDIUse=1 WtCom= 1.00D+00 WtEn= 0.00D+00
 Coeff-Com: -0.695D-03-0.111D-02 0.157D-01 0.511D-02-0.309D+00 0.129D+01
 Coeff:     -0.695D-03-0.111D-02 0.157D-01 0.511D-02-0.309D+00 0.129D+01
 Gap=     0.924 Goal=   None    Shift=    0.000
 RMSDP=5.58D-06 MaxDP=4.16D-05 DE=-9.70D-08 OVMax= 0.00D+00

 Cycle   7  Pass 1  IDiag  1:
 E= -152.131457203117     Delta-E=       -0.000000005323 Rises=F Damp=F
 DIIS: error= 2.49D-06 at cycle   7 NSaved=   7.
 NSaved= 7 IEnMin= 7 EnMin= -152.131457203117     IErMin= 7 ErrMin= 2.49D-06
 ErrMax= 2.49D-06  0.00D+00 EMaxC= 1.00D-01 BMatC= 1.18D-10 BMatP= 1.64D-09
 IDIUse=1 WtCom= 1.00D+00 WtEn= 0.00D+00
 Coeff-Com:  0.158D-03-0.107D-02 0.992D-03 0.155D-01-0.531D-01-0.179D+00
 Coeff-Com:  0.122D+01
 Coeff:      0.158D-03-0.107D-02 0.992D-03 0.155D-01-0.531D-01-0.179D+00
 Coeff:      0.122D+01
 Gap=     0.924 Goal=   None    Shift=    0.000
 RMSDP=1.59D-06 MaxDP=1.05D-05 DE=-5.32D-09 OVMax= 0.00D+00

 Cycle   8  Pass 1  IDiag  1:
 E= -152.131457203502     Delta-E=       -0.000000000385 Rises=F Damp=F
 DIIS: error= 4.92D-07 at cycle   8 NSaved=   8.
 NSaved= 8 IEnMin= 8 EnMin= -152.131457203502     IErMin= 8 ErrMin= 4.92D-07
 ErrMax= 4.92D-07  0.00D+00 EMaxC= 1.00D-01 BMatC= 6.23D-12 BMatP= 1.18D-10
 IDIUse=1 WtCom= 1.00D+00 WtEn= 0.00D+00
 Coeff-Com:  0.506D-05 0.274D-03-0.111D-02-0.302D-02 0.267D-01-0.416D-01
 Coeff-Com: -0.211D+00 0.123D+01
 Coeff:      0.506D-05 0.274D-03-0.111D-02-0.302D-02 0.267D-01-0.416D-01
 Coeff:     -0.211D+00 0.123D+01
 Gap=     0.924 Goal=   None    Shift=    0.000
 RMSDP=3.55D-07 MaxDP=2.31D-06 DE=-3.85D-10 OVMax= 0.00D+00

 Cycle   9  Pass 1  IDiag  1:
 E= -152.131457203521     Delta-E=       -0.000000000019 Rises=F Damp=F
 DIIS: error= 7.19D-08 at cycle   9 NSaved=   9.
 NSaved= 9 IEnMin= 9 EnMin= -152.131457203521     IErMin= 9 ErrMin= 7.19D-08
 ErrMax= 7.19D-08  0.00D+00 EMaxC= 1.00D-01 BMatC= 2.55D-13 BMatP= 6.23D-12
 IDIUse=1 WtCom= 1.00D+00 WtEn= 0.00D+00
 Coeff-Com: -0.134D-04 0.562D-04 0.274D-04-0.720D-03 0.819D-03 0.157D-01
 Coeff-Com: -0.569D-01-0.119D+00 0.116D+01
 Coeff:     -0.134D-04 0.562D-04 0.274D-04-0.720D-03 0.819D-03 0.157D-01
 Coeff:     -0.569D-01-0.119D+00 0.116D+01
 Gap=     0.924 Goal=   None    Shift=    0.000
 RMSDP=7.07D-08 MaxDP=4.25D-07 DE=-1.91D-11 OVMax= 0.00D+00

 Cycle  10  Pass 1  IDiag  1:
 E= -152.131457203522     Delta-E=       -0.000000000001 Rises=F Damp=F
 DIIS: error= 1.51D-08 at cycle  10 NSaved=  10.
 NSaved=10 IEnMin=10 EnMin= -152.131457203522     IErMin=10 ErrMin= 1.51D-08
 ErrMax= 1.51D-08  0.00D+00 EMaxC= 1.00D-01 BMatC= 5.18D-15 BMatP= 2.55D-13
 IDIUse=1 WtCom= 1.00D+00 WtEn= 0.00D+00
 Coeff-Com:  0.382D-05-0.206D-04 0.749D-05 0.272D-03-0.700D-03-0.397D-02
 Coeff-Com:  0.209D-01 0.132D-01-0.349D+00 0.132D+01
 Coeff:      0.382D-05-0.206D-04 0.749D-05 0.272D-03-0.700D-03-0.397D-02
 Coeff:      0.209D-01 0.132D-01-0.349D+00 0.132D+01
 Gap=     0.924 Goal=   None    Shift=    0.000
 RMSDP=9.34D-09 MaxDP=4.73D-08 DE=-7.96D-13 OVMax= 0.00D+00

 SCF Done:  E(RHF) =  -152.131457204     A.U. after   10 cycles
            NFock= 10  Conv=0.93D-08     -V/T= 2.0085
 KE= 1.508473328764D+02 PE=-5.190416602488D+02 EE= 1.351791351851D+02
 Leave Link  502 at Wed Nov 13 12:36:33 2019, MaxMem=   100000000 cpu:               0.1 elap:               0.1
 (Enter /Users/hhratchian/.gaussian/gdv-current/gdv/l701.exe)
 ... and contract with generalized density number  0.
 Compute integral first derivatives.
 Leave Link  701 at Wed Nov 13 12:36:34 2019, MaxMem=   100000000 cpu:               0.1 elap:               0.1
 (Enter /Users/hhratchian/.gaussian/gdv-current/gdv/l702.exe)
 L702 exits ... SP integral derivatives will be done elsewhere.
 Leave Link  702 at Wed Nov 13 12:36:34 2019, MaxMem=   100000000 cpu:               0.0 elap:               0.0
 (Enter /Users/hhratchian/.gaussian/gdv-current/gdv/l703.exe)
 Integral derivatives from FoFJK, PRISM(SPDF).
 Compute integral first derivatives, UseDBF=F ICtDFT=           0.
 Calling FoFJK, ICntrl=      2127 FMM=F ISym2X=0 I1Cent= 0 IOpClX= 0 NMat=1 NMatS=1 NMatT=0.
 FoFJK:  IHMeth= 1 ICntrl=    2127 DoSepK=F KAlg= 0 I1Cent=           0 FoldK=F
 IRaf=         0 NMat=       1 IRICut=       1 DoRegI=T DoRafI=F ISym2E= 0 IDoP0=0 IntGTp=1.
 FoFCou: FMM=F IPFlag=           0 FMFlag=      100000 FMFlg1=         800
         NFxFlg=           0 DoJE=F BraDBF=F KetDBF=F FulRan=T
         wScrn=  0.000000 ICntrl=      2127 IOpCl=  0 I1Cent=           0 NGrid=           0
         NMat0=    1 NMatS0=      1 NMatT0=    0 NMatD0=    1 NMtDS0=    0 NMtDT0=    0
 Symmetry not used in FoFCou.
 Leave Link  703 at Wed Nov 13 12:36:34 2019, MaxMem=   100000000 cpu:               0.1 elap:               0.1
 (Enter /Users/hhratchian/.gaussian/gdv-current/gdv/l716.exe)
 Dipole        = 4.41317350D-01-4.05193636D-02 4.18304058D-01
 ***** Axes restored to original set *****
 -------------------------------------------------------------------
 Center     Atomic                   Forces (Hartrees/Bohr)
 Number     Number              X              Y              Z
 -------------------------------------------------------------------
      1        6           0.007108096    0.012453339   -0.011879048
      2        8           0.010324063   -0.008614867    0.018459294
      3        1           0.005866228    0.003730876    0.000259633
      4        1          -0.001043171   -0.002800725   -0.001370006
      5        6          -0.007948810    0.000464712    0.000037834
      6        1          -0.012717025   -0.005860111   -0.005656127
      7        1          -0.001275888    0.002973544    0.000244178
      8        1          -0.000219805   -0.001319209    0.001620911
      9        1          -0.000093686   -0.001027559   -0.001716667
 -------------------------------------------------------------------
 Cartesian Forces:  Max     0.018459294 RMS     0.006771105
 Leave Link  716 at Wed Nov 13 12:36:34 2019, MaxMem=   100000000 cpu:               0.0 elap:               0.0
 (Enter /Users/hhratchian/.gaussian/gdv-current/gdv/l103.exe)

 GradGradGradGradGradGradGradGradGradGradGradGradGradGradGradGradGradGrad
 Berny optimization.
 Using GEDIIS/GDIIS optimizer.
 FormGI is forming the generalized inverse of G from B-inverse, IUseBI=4.
 Internal  Forces:  Max     0.028038423 RMS     0.005886059
 Search for a local minimum.
 Step number   2 out of a maximum of   43
 All quantities printed in internal units (Hartrees-Bohrs-Radians)
 RMS Force = .58861D-02 SwitMx=.10000D-02 MixMth= 1
 Mixed Optimization -- RFO/linear search
 Update second derivatives using D2CorX and points    1    2
 DE= -2.75D-03 DEPred=-7.02D-03 R= 3.92D-01
 Trust test= 3.92D-01 RLast= 2.80D-01 DXMaxT set to 3.00D-01
 ITU=  0  0
 Use linear search instead of GDIIS.
     Eigenvalues ---    0.00237   0.01295   0.04867   0.05447   0.05550
     Eigenvalues ---    0.05684   0.11900   0.14129   0.15860   0.16000
     Eigenvalues ---    0.16000   0.20681   0.25785   0.31449   0.34676
     Eigenvalues ---    0.34813   0.34813   0.34813   0.35557   0.41795
     Eigenvalues ---    0.52685
 RFO step:  Lambda=-8.57513928D-04 EMin= 2.36866457D-03
 Quartic linear search produced a step of -0.36417.
 Iteration  1 RMS(Cart)=  0.02981131 RMS(Int)=  0.00107580
 Iteration  2 RMS(Cart)=  0.00084696 RMS(Int)=  0.00035759
 Iteration  3 RMS(Cart)=  0.00000022 RMS(Int)=  0.00035759
 ITry= 1 IFail=0 DXMaxC= 1.10D-01 DCOld= 1.00D+10 DXMaxT= 3.00D-01 DXLimC= 3.00D+00 Rises=F
 Variable       Old X    -DE/DX   Delta X   Delta X   Delta X     New X
                                 (Linear)    (Quad)   (Total)
    R1        2.70420   0.00880  -0.00069   0.01446   0.01377   2.71798
    R2        2.06454   0.00194  -0.00173   0.00564   0.00391   2.06845
    R3        2.07861  -0.00260  -0.00685   0.00362  -0.00323   2.07538
    R4        2.94262  -0.00880  -0.01181  -0.00500  -0.01682   2.92580
    R5        1.88006  -0.00237  -0.02401   0.02622   0.00221   1.88228
    R6        2.04929   0.00086   0.00383  -0.00311   0.00072   2.05001
    R7        2.04942   0.00207   0.00378  -0.00085   0.00293   2.05235
    R8        2.04771   0.00199   0.00440  -0.00175   0.00265   2.05036
    A1        1.82088   0.00780   0.03269   0.00381   0.03626   1.85714
    A2        1.95254  -0.00023  -0.01526   0.00784  -0.00643   1.94611
    A3        1.99059  -0.00629  -0.02912   0.01955  -0.00901   1.98158
    A4        1.87279  -0.00031   0.01378  -0.02164  -0.00802   1.86477
    A5        1.91332  -0.00269  -0.00098  -0.00909  -0.01054   1.90278
    A6        1.90829   0.00210   0.00086  -0.00334  -0.00144   1.90685
    A7        1.73673   0.02804   0.06333   0.03016   0.09349   1.83021
    A8        1.94160  -0.00452  -0.01128  -0.00528  -0.01645   1.92515
    A9        1.93007   0.00033  -0.00708   0.01091   0.00389   1.93396
   A10        1.92358   0.00061  -0.00472   0.00928   0.00461   1.92819
   A11        1.88569   0.00187   0.00908  -0.00610   0.00310   1.88879
   A12        1.89178   0.00175   0.00687  -0.00334   0.00363   1.89541
   A13        1.88967   0.00013   0.00763  -0.00607   0.00157   1.89124
    D1       -3.11242  -0.00193  -0.01062   0.00899  -0.00131  -3.11374
    D2       -1.09345   0.00203   0.01684  -0.01061   0.00685  -1.08660
    D3        1.08373  -0.00033  -0.01330   0.00691  -0.00732   1.07641
    D4        3.08219   0.00249   0.02163  -0.01762   0.00415   3.08634
    D5       -1.10546   0.00208   0.02122  -0.02151  -0.00018  -1.10565
    D6        0.98333   0.00284   0.02326  -0.01614   0.00727   0.99060
    D7        1.04813  -0.00160  -0.00034  -0.02841  -0.02871   1.01942
    D8       -3.13953  -0.00201  -0.00075  -0.03230  -0.03304   3.11061
    D9       -1.05074  -0.00125   0.00129  -0.02694  -0.02559  -1.07633
   D10       -1.00041  -0.00089  -0.01704   0.00498  -0.01222  -1.01264
   D11        1.09511  -0.00130  -0.01745   0.00109  -0.01656   1.07856
   D12       -3.09928  -0.00054  -0.01541   0.00646  -0.00910  -3.10838
         Item               Value     Threshold  Converged?
 Maximum Force            0.028038     0.000450     NO 
 RMS     Force            0.005886     0.000300     NO 
 Maximum Displacement     0.109799     0.001800     NO 
 RMS     Displacement     0.029606     0.001200     NO 
 Predicted change in Energy=-1.819038D-03
 Lowest energy point so far.  Saving SCF results.
 GradGradGradGradGradGradGradGradGradGradGradGradGradGradGradGradGradGrad

 Leave Link  103 at Wed Nov 13 12:36:34 2019, MaxMem=   100000000 cpu:               0.0 elap:               0.0
 (Enter /Users/hhratchian/.gaussian/gdv-current/gdv/l202.exe)
                          Input orientation:                          
 ---------------------------------------------------------------------
 Center     Atomic      Atomic             Coordinates (Angstroms)
 Number     Number       Type             X           Y           Z
 ---------------------------------------------------------------------
      1          6           0       -0.092345    0.555498    0.046280
      2          8           0       -1.255473   -0.278562   -0.095700
      3          1           0       -0.128062    1.278240   -0.774982
      4          1           0       -0.122607    1.132987    0.979945
      5          6           0        1.241911   -0.226467   -0.027368
      6          1           0       -1.214204   -0.907951    0.675207
      7          1           0        2.082408    0.457021    0.029500
      8          1           0        1.321592   -0.931799    0.794630
      9          1           0        1.307330   -0.778640   -0.959063
 ---------------------------------------------------------------------
                    Distance matrix (angstroms):
                    1          2          3          4          5
     1  C    0.000000
     2  O    1.438291   0.000000
     3  H    1.094579   2.038655   0.000000
     4  H    1.098244   2.105438   1.760937   0.000000
     5  C    1.548267   2.498862   2.167924   2.173638   0.000000
     6  H    1.948281   0.996058   2.839399   2.334497   2.643961
     7  H    2.177046   3.420264   2.491540   2.494467   1.084816
     8  H    2.184330   2.803689   3.073996   2.526537   1.086058
     9  H    2.179387   2.750170   2.514953   3.075514   1.085002
                    6          7          8          9
     6  H    0.000000
     7  H    3.625981   0.000000
     8  H    2.538719   1.758716   0.000000
     9  H    3.007606   1.762061   1.760426   0.000000
 Stoichiometry    C2H6O
 Framework group  C1[X(C2H6O)]
 Deg. of freedom    21
 Full point group                 C1      NOp   1
 RotChk:  IX=0 Diff= 3.06D-02
 Largest Abelian subgroup         C1      NOp   1
 Largest concise Abelian subgroup C1      NOp   1
                         Standard orientation:                         
 ---------------------------------------------------------------------
 Center     Atomic      Atomic             Coordinates (Angstroms)
 Number     Number       Type             X           Y           Z
 ---------------------------------------------------------------------
      1          6           0       -0.089202    0.556235    0.049907
      2          8           0       -1.261941   -0.260036   -0.114611
      3          1           0       -0.107800    1.291154   -0.761051
      4          1           0       -0.120356    1.120558    0.991558
      5          6           0        1.235183   -0.242391   -0.023127
      6          1           0       -1.236091   -0.900968    0.647405
      7          1           0        2.084116    0.428886    0.051208
      8          1           0        1.297965   -0.960502    0.789214
      9          1           0        1.301808   -0.781903   -0.962125
 ---------------------------------------------------------------------
 Rotational constants (GHZ):          34.2275903           8.9005653           7.8917502
 Marking standard orientation as input orientation.
 Leave Link  202 at Wed Nov 13 12:36:34 2019, MaxMem=   100000000 cpu:               0.0 elap:               0.0
 (Enter /Users/hhratchian/.gaussian/gdv-current/gdv/l301.exe)
 Standard basis: STO-3G (5D, 7F)
 Ernie: Thresh=  0.10000D-02 Tol=  0.10000D-05 Strict=F.
 There are    21 symmetry adapted cartesian basis functions of A   symmetry.
 There are    21 symmetry adapted basis functions of A   symmetry.
    21 basis functions,    63 primitive gaussians,    21 cartesian basis functions
    13 alpha electrons       13 beta electrons
       nuclear repulsion energy        80.7811551107 Hartrees.
 IExCor=    0 DFT=F Ex=HF Corr=None N6=None ScaHFX=  1.000000
 ScaDFX=  1.000000  1.000000  1.000000  1.000000  1.000000  0.000000
 ScaDFX=  0.000000  0.000000  0.000000  0.000000  0.000000  0.000000
 IRadAn=      5 IRanWt=     -1 IRanGd=            0 ICorTp=0 IEmpDi=  4
 NAtoms=    9 NActive=    9 NUniq=    9 SFac= 1.00D+00 NAtFMM=   60 NAOKFM=F Big=F
 Integral buffers will be    131072 words long.
 Raffenetti 1 integral format.
 Two-electron integral symmetry is turned on.
 Leave Link  301 at Wed Nov 13 12:36:34 2019, MaxMem=   100000000 cpu:               0.0 elap:               0.0
 (Enter /Users/hhratchian/.gaussian/gdv-current/gdv/l302.exe)
 NPDir=0 NMtPBC=     1 NCelOv=     1 NCel=       1 NClECP=     1 NCelD=      1
         NCelK=      1 NCelE2=     1 NClLst=     1 CellRange=     0.0.
 One-electron integrals computed using PRISM.
 One-electron integral symmetry used in STVInt
 NBasis=    21 RedAO= T EigKep=  2.13D-01  NBF=    21
 NBsUse=    21 1.00D-06 EigRej= -1.00D+00 NBFU=    21
 Leave Link  302 at Wed Nov 13 12:36:34 2019, MaxMem=   100000000 cpu:               0.1 elap:               0.1
 (Enter /Users/hhratchian/.gaussian/gdv-current/gdv/l303.exe)
 DipDrv:  MaxL=1.
 Leave Link  303 at Wed Nov 13 12:36:34 2019, MaxMem=   100000000 cpu:               0.0 elap:               0.0
 (Enter /Users/hhratchian/.gaussian/gdv-current/gdv/l401.exe)
 Initial guess from the checkpoint file:  "test001.chk"
 B after Tr=     0.000000    0.000000    0.000000
         Rot=    0.999966   -0.005419    0.002173    0.005767 Ang=  -0.94 deg.
 Guess basis will be translated and rotated to current coordinates.
 JPrj=2 DoOrth=T DoCkMO=T.
 Generating alternative initial guess.
 ExpMin= 1.69D-01 ExpMax= 1.31D+02 ExpMxC= 1.31D+02 IAcc=3 IRadAn=         5 AccDes= 0.00D+00
 Harris functional with IExCor=  205 and IRadAn=       5 diagonalized for initial guess.
 HarFok:  IExCor=  205 AccDes= 0.00D+00 IRadAn=         5 IDoV= 1 UseB2=F ITyADJ=14 ICtDFT=  3500011
 ScaDFX=  1.000000  1.000000  1.000000  1.000000  1.000000  1.000000
 ScaDFX=  1.000000  1.000000  1.000000  1.000000  1.000000  1.000000
 FoFCou: FMM=F IPFlag=           0 FMFlag=      100000 FMFlg1=           0
         NFxFlg=           0 DoJE=T BraDBF=F KetDBF=T FulRan=T
         wScrn=  0.000000 ICntrl=       500 IOpCl=  0 I1Cent=   200000004 NGrid=           0
         NMat0=    1 NMatS0=      1 NMatT0=    0 NMatD0=    1 NMtDS0=    0 NMtDT0=    0
 Petite list used in FoFCou.
 Harris En= -152.351610787979    
 Leave Link  401 at Wed Nov 13 12:36:35 2019, MaxMem=   100000000 cpu:               0.6 elap:               0.6
 (Enter /Users/hhratchian/.gaussian/gdv-current/gdv/l502.exe)
 Keep R1 ints in memory in canonical form, NReq=838841.
 FoFCou: FMM=F IPFlag=           0 FMFlag=           0 FMFlg1=           0
         NFxFlg=           0 DoJE=F BraDBF=F KetDBF=F FulRan=T
         wScrn=  0.000000 ICntrl=       600 IOpCl=  0 I1Cent=           0 NGrid=           0
         NMat0=    1 NMatS0=    231 NMatT0=    0 NMatD0=    1 NMtDS0=    0 NMtDT0=    0
 Symmetry not used in FoFCou.
 Two-electron integral symmetry not used.
 Closed shell SCF:
 Using DIIS extrapolation, IDIIS=  1040.
 NGot=   100000000 LenX=    99971327 LenY=    99970445
 Requested convergence on RMS density matrix=1.00D-08 within 128 cycles.
 Requested convergence on MAX density matrix=1.00D-06.
 Requested convergence on             energy=1.00D-06.
 No special actions if energy rises.

 Cycle   1  Pass 1  IDiag  1:
 E= -152.132411270718    
 DIIS: error= 2.46D-03 at cycle   1 NSaved=   1.
 NSaved= 1 IEnMin= 1 EnMin= -152.132411270718     IErMin= 1 ErrMin= 2.46D-03
 ErrMax= 2.46D-03  0.00D+00 EMaxC= 1.00D-01 BMatC= 2.05D-04 BMatP= 2.05D-04
 IDIUse=3 WtCom= 9.75D-01 WtEn= 2.46D-02
 Coeff-Com:  0.100D+01
 Coeff-En:   0.100D+01
 Coeff:      0.100D+01
 Gap=     1.061 Goal=   None    Shift=    0.000
 GapD=    1.061 DampG=2.000 DampE=1.000 DampFc=2.0000 IDamp=-1.
 RMSDP=1.25D-03 MaxDP=8.61D-03              OVMax= 0.00D+00

 Cycle   2  Pass 1  IDiag  1:
 E= -152.132862797691     Delta-E=       -0.000451526973 Rises=F Damp=F
 DIIS: error= 9.05D-04 at cycle   2 NSaved=   2.
 NSaved= 2 IEnMin= 2 EnMin= -152.132862797691     IErMin= 2 ErrMin= 9.05D-04
 ErrMax= 9.05D-04  0.00D+00 EMaxC= 1.00D-01 BMatC= 2.73D-05 BMatP= 2.05D-04
 IDIUse=3 WtCom= 9.91D-01 WtEn= 9.05D-03
 Coeff-Com: -0.437D+00 0.144D+01
 Coeff-En:   0.000D+00 0.100D+01
 Coeff:     -0.434D+00 0.143D+01
 Gap=     0.912 Goal=   None    Shift=    0.000
 RMSDP=6.75D-04 MaxDP=4.60D-03 DE=-4.52D-04 OVMax= 0.00D+00

 Cycle   3  Pass 1  IDiag  1:
 E= -152.132939174299     Delta-E=       -0.000076376609 Rises=F Damp=F
 DIIS: error= 1.81D-04 at cycle   3 NSaved=   3.
 NSaved= 3 IEnMin= 3 EnMin= -152.132939174299     IErMin= 3 ErrMin= 1.81D-04
 ErrMax= 1.81D-04  0.00D+00 EMaxC= 1.00D-01 BMatC= 7.24D-07 BMatP= 2.73D-05
 IDIUse=3 WtCom= 9.98D-01 WtEn= 1.81D-03
 Coeff-Com: -0.357D-01-0.180D-01 0.105D+01
 Coeff-En:   0.000D+00 0.000D+00 0.100D+01
 Coeff:     -0.357D-01-0.180D-01 0.105D+01
 Gap=     0.912 Goal=   None    Shift=    0.000
 RMSDP=1.10D-04 MaxDP=6.44D-04 DE=-7.64D-05 OVMax= 0.00D+00

 Cycle   4  Pass 1  IDiag  1:
 E= -152.132941142663     Delta-E=       -0.000001968364 Rises=F Damp=F
 DIIS: error= 4.77D-05 at cycle   4 NSaved=   4.
 NSaved= 4 IEnMin= 4 EnMin= -152.132941142663     IErMin= 4 ErrMin= 4.77D-05
 ErrMax= 4.77D-05  0.00D+00 EMaxC= 1.00D-01 BMatC= 4.16D-08 BMatP= 7.24D-07
 IDIUse=1 WtCom= 1.00D+00 WtEn= 0.00D+00
 Coeff-Com:  0.215D-01-0.649D-01-0.686D-01 0.111D+01
 Coeff:      0.215D-01-0.649D-01-0.686D-01 0.111D+01
 Gap=     0.912 Goal=   None    Shift=    0.000
 RMSDP=2.32D-05 MaxDP=1.29D-04 DE=-1.97D-06 OVMax= 0.00D+00

 Cycle   5  Pass 1  IDiag  1:
 E= -152.132941247214     Delta-E=       -0.000000104551 Rises=F Damp=F
 DIIS: error= 7.50D-06 at cycle   5 NSaved=   5.
 NSaved= 5 IEnMin= 5 EnMin= -152.132941247214     IErMin= 5 ErrMin= 7.50D-06
 ErrMax= 7.50D-06  0.00D+00 EMaxC= 1.00D-01 BMatC= 2.22D-09 BMatP= 4.16D-08
 IDIUse=1 WtCom= 1.00D+00 WtEn= 0.00D+00
 Coeff-Com: -0.165D-02 0.115D-01-0.408D-01-0.195D+00 0.123D+01
 Coeff:     -0.165D-02 0.115D-01-0.408D-01-0.195D+00 0.123D+01
 Gap=     0.912 Goal=   None    Shift=    0.000
 RMSDP=6.30D-06 MaxDP=3.35D-05 DE=-1.05D-07 OVMax= 0.00D+00

 Cycle   6  Pass 1  IDiag  1:
 E= -152.132941253658     Delta-E=       -0.000000006444 Rises=F Damp=F
 DIIS: error= 2.03D-06 at cycle   6 NSaved=   6.
 NSaved= 6 IEnMin= 6 EnMin= -152.132941253658     IErMin= 6 ErrMin= 2.03D-06
 ErrMax= 2.03D-06  0.00D+00 EMaxC= 1.00D-01 BMatC= 8.37D-11 BMatP= 2.22D-09
 IDIUse=1 WtCom= 1.00D+00 WtEn= 0.00D+00
 Coeff-Com: -0.295D-03-0.371D-03 0.118D-01-0.588D-02-0.233D+00 0.123D+01
 Coeff:     -0.295D-03-0.371D-03 0.118D-01-0.588D-02-0.233D+00 0.123D+01
 Gap=     0.912 Goal=   None    Shift=    0.000
 RMSDP=1.22D-06 MaxDP=7.52D-06 DE=-6.44D-09 OVMax= 0.00D+00

 Cycle   7  Pass 1  IDiag  1:
 E= -152.132941253882     Delta-E=       -0.000000000224 Rises=F Damp=F
 DIIS: error= 3.34D-07 at cycle   7 NSaved=   7.
 NSaved= 7 IEnMin= 7 EnMin= -152.132941253882     IErMin= 7 ErrMin= 3.34D-07
 ErrMax= 3.34D-07  0.00D+00 EMaxC= 1.00D-01 BMatC= 2.32D-12 BMatP= 8.37D-11
 IDIUse=1 WtCom= 1.00D+00 WtEn= 0.00D+00
 Coeff-Com:  0.100D-03-0.541D-03 0.139D-02 0.758D-02-0.371D-01-0.613D-01
 Coeff-Com:  0.109D+01
 Coeff:      0.100D-03-0.541D-03 0.139D-02 0.758D-02-0.371D-01-0.613D-01
 Coeff:      0.109D+01
 Gap=     0.912 Goal=   None    Shift=    0.000
 RMSDP=1.90D-07 MaxDP=1.29D-06 DE=-2.24D-10 OVMax= 0.00D+00

 Cycle   8  Pass 1  IDiag  1:
 E= -152.132941253888     Delta-E=       -0.000000000006 Rises=F Damp=F
 DIIS: error= 5.73D-08 at cycle   8 NSaved=   8.
 NSaved= 8 IEnMin= 8 EnMin= -152.132941253888     IErMin= 8 ErrMin= 5.73D-08
 ErrMax= 5.73D-08  0.00D+00 EMaxC= 1.00D-01 BMatC= 8.68D-14 BMatP= 2.32D-12
 IDIUse=1 WtCom= 1.00D+00 WtEn= 0.00D+00
 Coeff-Com: -0.163D-06 0.490D-04-0.371D-03-0.622D-03 0.893D-02-0.234D-01
 Coeff-Com: -0.109D+00 0.112D+01
 Coeff:     -0.163D-06 0.490D-04-0.371D-03-0.622D-03 0.893D-02-0.234D-01
 Coeff:     -0.109D+00 0.112D+01
 Gap=     0.912 Goal=   None    Shift=    0.000
 RMSDP=3.05D-08 MaxDP=2.01D-07 DE=-5.63D-12 OVMax= 0.00D+00

 Cycle   9  Pass 1  IDiag  1:
 E= -152.132941253888     Delta-E=       -0.000000000001 Rises=F Damp=F
 DIIS: error= 1.18D-08 at cycle   9 NSaved=   9.
 NSaved= 9 IEnMin= 9 EnMin= -152.132941253888     IErMin= 9 ErrMin= 1.18D-08
 ErrMax= 1.18D-08  0.00D+00 EMaxC= 1.00D-01 BMatC= 5.59D-15 BMatP= 8.68D-14
 IDIUse=1 WtCom= 1.00D+00 WtEn= 0.00D+00
 Coeff-Com: -0.655D-05 0.306D-04-0.459D-04-0.458D-03 0.149D-02 0.724D-02
 Coeff-Com: -0.624D-01-0.121D+00 0.118D+01
 Coeff:     -0.655D-05 0.306D-04-0.459D-04-0.458D-03 0.149D-02 0.724D-02
 Coeff:     -0.624D-01-0.121D+00 0.118D+01
 Gap=     0.912 Goal=   None    Shift=    0.000
 RMSDP=8.61D-09 MaxDP=6.88D-08 DE=-5.12D-13 OVMax= 0.00D+00

 SCF Done:  E(RHF) =  -152.132941254     A.U. after    9 cycles
            NFock=  9  Conv=0.86D-08     -V/T= 2.0086
 KE= 1.508308269700D+02 PE=-5.188781953368D+02 EE= 1.351332720022D+02
 Leave Link  502 at Wed Nov 13 12:36:35 2019, MaxMem=   100000000 cpu:               0.1 elap:               0.1
 (Enter /Users/hhratchian/.gaussian/gdv-current/gdv/l701.exe)
 ... and contract with generalized density number  0.
 Compute integral first derivatives.
 Leave Link  701 at Wed Nov 13 12:36:35 2019, MaxMem=   100000000 cpu:               0.1 elap:               0.1
 (Enter /Users/hhratchian/.gaussian/gdv-current/gdv/l702.exe)
 L702 exits ... SP integral derivatives will be done elsewhere.
 Leave Link  702 at Wed Nov 13 12:36:35 2019, MaxMem=   100000000 cpu:               0.0 elap:               0.0
 (Enter /Users/hhratchian/.gaussian/gdv-current/gdv/l703.exe)
 Integral derivatives from FoFJK, PRISM(SPDF).
 Compute integral first derivatives, UseDBF=F ICtDFT=           0.
 Calling FoFJK, ICntrl=      2127 FMM=F ISym2X=0 I1Cent= 0 IOpClX= 0 NMat=1 NMatS=1 NMatT=0.
 FoFJK:  IHMeth= 1 ICntrl=    2127 DoSepK=F KAlg= 0 I1Cent=           0 FoldK=F
 IRaf=         0 NMat=       1 IRICut=       1 DoRegI=T DoRafI=F ISym2E= 0 IDoP0=0 IntGTp=1.
 FoFCou: FMM=F IPFlag=           0 FMFlag=      100000 FMFlg1=         800
         NFxFlg=           0 DoJE=F BraDBF=F KetDBF=F FulRan=T
         wScrn=  0.000000 ICntrl=      2127 IOpCl=  0 I1Cent=           0 NGrid=           0
         NMat0=    1 NMatS0=      1 NMatT0=    0 NMatD0=    1 NMtDS0=    0 NMtDT0=    0
 Symmetry not used in FoFCou.
 Leave Link  703 at Wed Nov 13 12:36:35 2019, MaxMem=   100000000 cpu:               0.1 elap:               0.1
 (Enter /Users/hhratchian/.gaussian/gdv-current/gdv/l716.exe)
 Dipole        = 4.24048747D-01-5.75280795D-02 4.17199959D-01
 ***** Axes restored to original set *****
 -------------------------------------------------------------------
 Center     Atomic                   Forces (Hartrees/Bohr)
 Number     Number              X              Y              Z
 -------------------------------------------------------------------
      1        6          -0.000744424   -0.000490662    0.000368526
      2        8           0.001888701   -0.001067672    0.002847929
      3        1          -0.000863288   -0.001168447   -0.000058202
      4        1          -0.000673854   -0.001599199    0.000031288
      5        6          -0.001654907   -0.001191287    0.000621856
      6        1           0.002334164    0.004893716   -0.003576229
      7        1           0.000035866    0.001052685   -0.000000967
      8        1          -0.000194419   -0.000258107    0.000371955
      9        1          -0.000127839   -0.000171027   -0.000606155
 -------------------------------------------------------------------
 Cartesian Forces:  Max     0.004893716 RMS     0.001579627
 Leave Link  716 at Wed Nov 13 12:36:35 2019, MaxMem=   100000000 cpu:               0.0 elap:               0.0
 (Enter /Users/hhratchian/.gaussian/gdv-current/gdv/l103.exe)

 GradGradGradGradGradGradGradGradGradGradGradGradGradGradGradGradGradGrad
 Berny optimization.
 Using GEDIIS/GDIIS optimizer.
 FormGI is forming the generalized inverse of G from B-inverse, IUseBI=4.
 Internal  Forces:  Max     0.005824307 RMS     0.001787753
 Search for a local minimum.
 Step number   3 out of a maximum of   43
 All quantities printed in internal units (Hartrees-Bohrs-Radians)
 RMS Force = .17878D-02 SwitMx=.10000D-02 MixMth= 1
 Mixed Optimization -- RFO/linear search
 Update second derivatives using D2CorX and points    1    2    3
 DE= -1.48D-03 DEPred=-1.82D-03 R= 8.16D-01
 TightC=F SS=  1.41D+00  RLast= 1.20D-01 DXNew= 5.0454D-01 3.6069D-01
 Trust test= 8.16D-01 RLast= 1.20D-01 DXMaxT set to 3.61D-01
 ITU=  1  0  0
 Use linear search instead of GDIIS.
     Eigenvalues ---    0.00237   0.01295   0.04932   0.05491   0.05543
     Eigenvalues ---    0.06047   0.11799   0.14093   0.15765   0.16000
     Eigenvalues ---    0.16139   0.21984   0.27000   0.30696   0.34808
     Eigenvalues ---    0.34813   0.34813   0.34881   0.35105   0.47876
     Eigenvalues ---    0.57553
 RFO step:  Lambda=-1.97198607D-04 EMin= 2.36890225D-03
 Quartic linear search produced a step of -0.14238.
 Iteration  1 RMS(Cart)=  0.01241271 RMS(Int)=  0.00008792
 Iteration  2 RMS(Cart)=  0.00007293 RMS(Int)=  0.00001822
 Iteration  3 RMS(Cart)=  0.00000000 RMS(Int)=  0.00001822
 ITry= 1 IFail=0 DXMaxC= 5.17D-02 DCOld= 1.00D+10 DXMaxT= 3.61D-01 DXLimC= 3.00D+00 Rises=F
 Variable       Old X    -DE/DX   Delta X   Delta X   Delta X     New X
                                 (Linear)    (Quad)   (Total)
    R1        2.71798  -0.00553  -0.00196  -0.00716  -0.00912   2.70886
    R2        2.06845  -0.00073  -0.00056  -0.00075  -0.00130   2.06715
    R3        2.07538  -0.00078   0.00046  -0.00259  -0.00213   2.07325
    R4        2.92580  -0.00139   0.00239  -0.00777  -0.00538   2.92042
    R5        1.88228  -0.00582  -0.00032  -0.00805  -0.00837   1.87391
    R6        2.05001   0.00068  -0.00010   0.00174   0.00164   2.05164
    R7        2.05235   0.00044  -0.00042   0.00171   0.00129   2.05365
    R8        2.05036   0.00060  -0.00038   0.00202   0.00164   2.05200
    A1        1.85714  -0.00024  -0.00516   0.00602   0.00088   1.85803
    A2        1.94611  -0.00026   0.00092  -0.00941  -0.00853   1.93758
    A3        1.98158  -0.00117   0.00128  -0.00947  -0.00821   1.97337
    A4        1.86477   0.00050   0.00114   0.00909   0.01022   1.87499
    A5        1.90278   0.00095   0.00150   0.00519   0.00669   1.90946
    A6        1.90685   0.00034   0.00021   0.00025   0.00039   1.90723
    A7        1.83021  -0.00541  -0.01331  -0.00325  -0.01656   1.81366
    A8        1.92515  -0.00109   0.00234  -0.00961  -0.00727   1.91788
    A9        1.93396  -0.00005  -0.00055   0.00090   0.00034   1.93430
   A10        1.92819  -0.00009  -0.00066   0.00053  -0.00013   1.92806
   A11        1.88879   0.00057  -0.00044   0.00358   0.00314   1.89193
   A12        1.89541   0.00048  -0.00052   0.00240   0.00187   1.89728
   A13        1.89124   0.00021  -0.00022   0.00251   0.00229   1.89353
    D1       -3.11374  -0.00004   0.00019  -0.00459  -0.00439  -3.11813
    D2       -1.08660   0.00028  -0.00097   0.00488   0.00386  -1.08274
    D3        1.07641  -0.00038   0.00104  -0.00949  -0.00842   1.06799
    D4        3.08634   0.00014  -0.00059   0.01291   0.01232   3.09866
    D5       -1.10565   0.00012   0.00003   0.01172   0.01174  -1.09391
    D6        0.99060   0.00030  -0.00104   0.01579   0.01474   1.00535
    D7        1.01942   0.00052   0.00409   0.00773   0.01184   1.03125
    D8        3.11061   0.00050   0.00470   0.00654   0.01126   3.12187
    D9       -1.07633   0.00068   0.00364   0.01061   0.01427  -1.06206
   D10       -1.01264  -0.00080   0.00174  -0.00621  -0.00447  -1.01711
   D11        1.07856  -0.00082   0.00236  -0.00740  -0.00505   1.07351
   D12       -3.10838  -0.00064   0.00130  -0.00333  -0.00204  -3.11042
         Item               Value     Threshold  Converged?
 Maximum Force            0.005824     0.000450     NO 
 RMS     Force            0.001788     0.000300     NO 
 Maximum Displacement     0.051733     0.001800     NO 
 RMS     Displacement     0.012410     0.001200     NO 
 Predicted change in Energy=-1.375738D-04
 Lowest energy point so far.  Saving SCF results.
 GradGradGradGradGradGradGradGradGradGradGradGradGradGradGradGradGradGrad

 Leave Link  103 at Wed Nov 13 12:36:35 2019, MaxMem=   100000000 cpu:               0.0 elap:               0.0
 (Enter /Users/hhratchian/.gaussian/gdv-current/gdv/l202.exe)
                          Input orientation:                          
 ---------------------------------------------------------------------
 Center     Atomic      Atomic             Coordinates (Angstroms)
 Number     Number       Type             X           Y           Z
 ---------------------------------------------------------------------
      1          6           0       -0.088653    0.558787    0.046209
      2          8           0       -1.254587   -0.259856   -0.112693
      3          1           0       -0.110861    1.290777   -0.766374
      4          1           0       -0.124499    1.115392    0.990967
      5          6           0        1.229499   -0.244989   -0.022692
      6          1           0       -1.208715   -0.890952    0.650816
      7          1           0        2.077275    0.428202    0.059753
      8          1           0        1.284662   -0.966912    0.787736
      9          1           0        1.299561   -0.779418   -0.965345
 ---------------------------------------------------------------------
                    Distance matrix (angstroms):
                    1          2          3          4          5
     1  C    0.000000
     2  O    1.433467   0.000000
     3  H    1.093889   2.034667   0.000000
     4  H    1.097115   2.094390   1.766123   0.000000
     5  C    1.545421   2.485760   2.169840   2.170587   0.000000
     6  H    1.929204   0.991631   2.823765   2.305784   2.610702
     7  H    2.169903   3.406532   2.492882   2.487408   1.085683
     8  H    2.182570   2.785406   3.075696   2.522504   1.086743
     9  H    2.177423   2.742377   2.512885   3.073338   1.085872
                    6          7          8          9
     6  H    0.000000
     7  H    3.589882   0.000000
     8  H    2.498289   1.761969   0.000000
     9  H    2.985944   1.764656   1.763142   0.000000
 Stoichiometry    C2H6O
 Framework group  C1[X(C2H6O)]
 Deg. of freedom    21
 Full point group                 C1      NOp   1
 RotChk:  IX=0 Diff= 8.82D-03
 Largest Abelian subgroup         C1      NOp   1
 Largest concise Abelian subgroup C1      NOp   1
                         Standard orientation:                         
 ---------------------------------------------------------------------
 Center     Atomic      Atomic             Coordinates (Angstroms)
 Number     Number       Type             X           Y           Z
 ---------------------------------------------------------------------
[...]
     8         -1.51795945         -0.60665142         -1.80498593
     1          0.97302106          2.29003483         -1.37491404
     1         -1.43435367          2.25563138          0.93416284
     6          1.63349726         -0.36668492          1.67847309
     1         -2.53056541         -1.66701687         -0.63924276
     1          2.69337327          0.97637670          2.81033958
     1          0.55982812         -1.57444962          2.94489536
     1          2.95770790         -1.53434298          0.63369527

 Electric dipole moment (dipole orientation):
 (Debye = 10**-18 statcoulomb cm , SI units = C m)
                  (au)            (Debye)         (10**-30 SI)
   Tot        0.600705D+00      0.152684D+01      0.509299D+01
   x          0.000000D+00      0.000000D+00      0.000000D+00
   y          0.000000D+00      0.000000D+00      0.000000D+00
   z          0.600705D+00      0.152684D+01      0.509299D+01

 Dipole polarizability, Alpha (dipole orientation).
 (esu units = cm**3 , SI units = C**2 m**2 J**-1)
 Alpha(0;0):
               (au)            (10**-24 esu)      (10**-40 SI)
   iso        0.132842D+02      0.196851D+01      0.219027D+01
   aniso      0.441577D+01      0.654350D+00      0.728062D+00
   xx         0.136031D+02      0.201577D+01      0.224285D+01
   yx         0.246814D+01      0.365741D+00      0.406942D+00
   yy         0.136722D+02      0.202601D+01      0.225425D+01
   zx         0.738975D-01      0.109505D-01      0.121840D-01
   zy        -0.162584D+00     -0.240924D-01     -0.268064D-01
   zz         0.125772D+02      0.186375D+01      0.207370D+01

 First dipole hyperpolarizability, Beta (dipole orientation).
 ||, _|_  parallel and perpendicular components, (z) with respect to z axis,
 vector components x,y,z.  Values do not include the 1/n! factor of 1/2.
 (esu units = statvolt**-1 cm**4 , SI units = C**3 m**3 J**-2)
 Beta(0;0,0):
               (au)            (10**-30 esu)      (10**-50 SI)
   || (z)     0.879126D+01      0.759497D-01      0.281880D-01
   _|_(z)     0.293042D+01      0.253166D-01      0.939599D-02
   x          0.136032D+02      0.117521D+00      0.436169D-01
   y          0.146336D+02      0.126423D+00      0.469206D-01
   z          0.439563D+02      0.379748D+00      0.140940D+00
   ||         0.965681D+01      0.834273D-01      0.309632D-01
   xxx        0.211540D+01      0.182755D-01      0.678275D-02
   xxy        0.738212D-01      0.637757D-03      0.236697D-03
   yxy       -0.184768D-02     -0.159626D-04     -0.592434D-05
   yyy        0.203639D+01      0.175928D-01      0.652939D-02
   xxz        0.419958D+01      0.362811D-01      0.134654D-01
   yxz        0.454130D+01      0.392333D-01      0.145610D-01
   yyz        0.498731D+01      0.430865D-01      0.159911D-01
   zxz        0.242086D+01      0.209143D-01      0.776214D-02
   zyz        0.276766D+01      0.239104D-01      0.887412D-02
   zzz        0.546521D+01      0.472151D-01      0.175234D-01

 ----------------------------------------------------------------------

 Test job not archived.
 1\1\GINC-LANSING\Freq\RHF\STO-3G\C2H6O1\HHRATCHIAN\13-Nov-2019\0\\#p t
 est geom=allcheck guess=read chkmth chkbas freq output=mat symm=saveOr
 ientation\\test\\0,1\C,-0.0915292779,0.5580891714,0.0492978538\O,-1.25
 64106273,-0.2628606786,-0.1138509199\H,-0.1158545844,1.2927983087,-0.7
 604457961\H,-0.127462109,1.1125606844,0.995592191\C,1.2308909035,-0.24
 1083046,-0.0236408817\H,-1.2091047779,-0.8988358479,0.6449867507\H,2.0
 784111338,0.4328389812,0.0536581034\H,1.2908517587,-0.9608306842,0.788
 0046263\H,1.2982738437,-0.7776827657,-0.9649303487\\Version=EM64M-GDVR
 evJ.04+\State=1-A\HF=-152.1330661\RMSD=3.511e-10\RMSF=1.661e-05\ZeroPo
 int=0.0947873\Thermal=0.0988462\ETot=-152.0342199\HTot=-152.0332757\GT
 ot=-152.0635888\Dipole=0.4306161,-0.0552741,0.4151642\DipoleDeriv=0.45
 67915,0.0284452,-0.0838555,0.0219044,0.334725,0.0401971,-0.0803387,0.0
 392485,0.2148459,-0.4380352,0.009804,0.1192694,-0.0143841,-0.3121362,-
 0.2187636,0.1485584,-0.1936368,-0.135596,-0.0279585,0.0116277,-0.01122
 27,0.0019407,-0.0163187,0.0290557,-0.0033861,0.0250398,-0.0036449,-0.0
 835429,0.0007166,0.0477686,-0.0096051,-0.0404115,-0.0223818,0.0014864,
 -0.0593081,-0.0588092,-0.0816285,-0.0602361,-0.0020581,-0.0179564,-0.0
 735311,-0.0095554,0.0008066,-0.0221911,-0.0379085,0.1921559,-0.0012976
 ,-0.0917453,-0.0290333,0.0850587,0.1856832,-0.0684322,0.2042142,-0.010
 6421,-0.0317163,-0.0351081,-0.0017041,0.0015795,0.0181701,-0.0077655,-
 0.0023858,-0.0060147,0.0459704,0.0016624,0.0155942,0.0100883,0.0227254
 ,-0.0092158,0.0386148,0.0079712,0.0376482,-0.0112059,0.0122716,0.03045
 41,0.0134594,0.022829,0.0136597,-0.0350846,-0.0042799,-0.025,-0.003009
 8\Polar=13.2747291,1.6656165,13.8836612,-0.4364617,-1.7835664,12.69416
 59\PolarDeriv=0.0393738,2.9064955,0.9836221,0.250761,-0.2715488,0.3749
 749,3.3731805,0.4651961,-0.6882303,-0.1684732,0.3594105,-1.950453,0.72
 09865,0.3680536,0.5535797,0.2009662,-2.6286663,-0.5211726,-5.7831269,-
 1.730981,-0.7619047,-1.4299647,0.3261971,-0.2815237,-0.8803595,-1.7412
 119,0.3837698,-0.5391081,-1.8436655,0.7212421,-1.1258799,-1.2396602,-1
 .6461746,-1.315761,1.1529665,-2.9199152,-0.3392917,1.3224446,-0.250351
 3,-1.774939,0.0374763,-0.0147354,-0.3944831,-0.3625038,3.9860066,0.163
 1848,-2.10841,0.6780274,-0.3202133,0.038524,-0.682216,-0.2632367,2.383
 1329,-3.3869969,-0.2803294,1.1965274,-0.1344351,2.0338496,-0.0550095,-
 0.2158021,-0.3699155,-0.2317068,3.2382108,-0.0473956,2.0982166,0.62117
 74,0.1676455,-0.0545295,0.6527829,-0.2955466,2.266674,4.0282066,1.0725
 405,-2.4011386,-0.5110221,-0.3982051,0.043358,-0.3132346,-2.6006477,-0
 .2763797,0.3665526,0.0801538,-0.4176062,1.9685407,-0.2622643,0.0048487
 ,-0.4213178,-0.5357564,2.1336013,0.6523537,-0.9603289,-1.4187096,0.069
 4471,1.3892759,-0.0635143,0.0432367,-0.4754513,-1.21251,-4.0103189,0.4
 884689,1.9178258,-0.4846874,0.6353228,0.8433895,1.3150423,-1.0488106,-
 2.3314908,3.1640847,4.956485,2.0586676,0.163285,0.1769173,-0.0226821,0
 .1393025,0.824478,1.9937145,2.5660323,0.0062035,0.2158411,-0.2738046,0
 .1030086,0.0268819,0.1117579,1.9626624,0.8285814,0.1188587,0.6374288,-
 1.1416924,0.2588542,1.744093,-0.1308288,0.0872983,0.221513,0.7357342,-
 3.3065668,-0.2660052,1.7549591,-0.5454124,0.3472876,-0.2056745,0.42079
 87,0.5939137,-2.0012588,3.115585,0.6572488,-0.7916138,0.1825048,-1.991
 788,0.1365521,0.1804834,0.3016856,0.6296674,-2.535456,0.2829712,-1.976
 5713,-0.7346302,-0.2658936,0.2181666,-0.304253,0.701569,-1.8035402,-4.
 2510041\HyperPolar=10.4189213,5.7973461,2.9161601,0.6122448,1.0610219,
 1.5753585,4.0287356,0.5151135,-2.7275024,2.2350646\Quadrupole=-1.42829
 75,0.8316865,0.596611,0.4114591,-1.0572064,-0.7183327\PG=C01 [X(C2H6O1
 )]\NImag=0\\0.70607999,0.03277161,0.81159541,0.01433820,-0.03702146,0.
 87862390,-0.28919417,-0.11994825,-0.08028529,0.39914607,-0.17414297,-0
 .19672207,-0.02520355,0.19109946,0.48166600,-0.01372291,0.02912564,-0.
 11991638,0.10385227,-0.29608382,0.48731582,-0.07400953,0.01172797,-0.0
 1234610,0.00245115,-0.02884504,0.03282111,0.08040154,0.00819980,-0.239
 83872,0.18014750,-0.00204053,-0.01837288,0.02112249,-0.00191506,0.2514
 3811,-0.00843775,0.18117433,-0.29260507,0.00366023,-0.00393181,0.01012
 926,0.00661857,-0.19593710,0.29166940,-0.07227162,0.00880692,0.0154285
 8,-0.01070127,-0.02834846,-0.03569142,0.00181481,-0.00030923,-0.002419
 75,0.08204455,0.01314221,-0.16754142,-0.14886105,-0.01360098,-0.015314
 49,-0.02407560,-0.00175822,0.01912903,0.02871273,-0.00408577,0.1695004
 7,0.01681187,-0.14680142,-0.35154931,-0.00520292,-0.00339609,0.0025099
 8,0.00277833,-0.02075962,-0.01946457,-0.01087858,0.16575335,0.36017926
 ,-0.24024058,0.09163296,0.01309126,-0.04792302,0.00600073,-0.00265496,
 -0.00037353,0.00014029,0.00198422,-0.00031627,0.00259789,-0.00265499,0
 .75000069,0.08936011,-0.17784189,-0.00361041,-0.03094946,0.01467089,0.
 00000734,0.02611992,-0.01150846,-0.00664549,0.01999306,-0.00850783,0.0
 0374106,0.06845232,0.82511407,0.00745668,-0.00468216,-0.12777232,-0.00
 484213,0.00324184,0.00594007,-0.03091411,0.01696654,0.00683893,0.03640
 391,-0.02146717,0.00354339,0.00752288,0.00040369,0.86078087,-0.0080191
 3,-0.04683632,0.04803624,-0.05545074,0.03207588,-0.08429684,-0.0075756
 2,-0.00490877,-0.00263458,0.00222550,0.00230352,0.00005316,0.00238342,
 -0.00070055,0.00145980,0.06656621,0.01226901,-0.02472595,0.03568712,-0
 .02778072,-0.26627456,0.26966145,-0.00661556,-0.00235592,-0.00230358,0
 .00218657,0.00164197,0.00074370,0.00228788,0.00350438,-0.00122080,0.01
 748774,0.28810414,-0.01879680,-0.02042348,0.00221883,-0.01693760,0.325
 44662,-0.38681889,-0.00120846,-0.00065443,0.00162502,-0.00053864,-0.00
 103636,0.00260291,-0.00063785,-0.00088796,0.00008550,0.03796255,-0.302
 29210,0.38014413,-0.02283470,-0.02603087,-0.00273397,-0.00573008,0.003
 65639,0.00010506,0.00205694,-0.00051957,-0.00019715,0.00231369,-0.0003
 9927,0.00017660,-0.30852776,-0.19194067,-0.02131400,0.00042924,0.00075
 948,-0.00030821,0.31924780,0.02122116,0.01863038,0.00180937,0.00635571
 ,-0.00147829,0.00026518,-0.00091489,0.00092698,-0.00006798,-0.00098434
 ,0.00058969,0.00017500,-0.18844038,-0.22791054,-0.01692216,0.00006284,
 -0.00038112,-0.00016000,0.19964823,0.23108642,0.00216379,0.00191155,-0
 .00054377,0.00034147,-0.00003041,0.00086789,0.00006638,-0.00040000,0.0
 0013077,-0.00030277,0.00048883,0.00021875,-0.02149256,-0.01721466,-0.0
 8150623,-0.00017590,-0.00025191,0.00014490,0.02287319,0.01828552,0.070
 89757,0.00029765,0.02741395,-0.03308213,0.00334227,0.00000934,0.000509
 23,-0.00651989,0.00299793,0.00174382,0.00164384,-0.00184541,-0.0000349
 7,-0.07781673,0.01130465,-0.01606557,-0.00028430,-0.00072502,0.0003614
 2,0.00641504,-0.02189115,0.03066445,0.07324107,-0.00159522,-0.01330624
 ,0.01649845,-0.00153565,0.00079454,-0.00087289,0.00349240,-0.00054278,
 -0.00094235,-0.00119341,0.00127992,0.00004424,0.00931283,-0.24505114,0
 .18825805,0.00033962,0.00056955,-0.00011040,0.00755125,-0.01244977,0.0
 2081881,-0.01514771,0.24859605,0.00075356,-0.00663711,0.00680822,0.000
 02637,-0.00026534,-0.00014272,0.00200020,-0.00061163,0.00075575,-0.000
 45115,-0.00008790,0.00091364,-0.01287154,0.18725416,-0.29544470,-0.000
 42663,0.00022064,0.00017139,-0.00192371,-0.00863543,0.00648524,0.01442
 619,-0.20185252,0.29964093,0.00019209,0.02046202,0.03755321,0.00405980
 ,-0.00150534,-0.00092154,0.00175414,-0.00164485,-0.00031761,-0.0067532
 3,0.00364602,-0.00104850,-0.07718622,0.00836062,0.02029254,-0.00027458
 ,0.00013062,0.00010360,0.00662983,-0.01505720,-0.03413804,-0.00031895,
 -0.00122410,-0.00153330,0.07189713,-0.00122571,-0.01024949,-0.01944597
 ,-0.00159959,0.00103085,0.00085021,-0.00129151,0.00112463,-0.00005875,
 0.00393465,-0.00077734,0.00049977,0.00801548,-0.17246949,-0.16457783,0
 .00017603,-0.00008249,0.00011812,0.00727503,-0.00901375,-0.02360773,-0
 .00211658,0.02010987,0.03061514,-0.01316780,0.17032719,-0.00056662,0.0
 0335410,0.00473590,-0.00061241,0.00022256,0.00011498,0.00018408,0.0001
 2626,0.00092051,-0.00155016,0.00057318,0.00104595,0.01771353,-0.163047
 73,-0.37246551,0.00002220,-0.00024453,-0.00017379,0.00332219,0.0052505
 0,0.00330487,0.00147756,-0.02184137,-0.01918775,-0.01999036,0.17560704
 ,0.38170484\\-0.00002753,0.00001865,-0.00002323,0.00000579,-0.00000329
 ,-0.00002921,-0.00001561,0.00001974,0.00000080,0.00001358,-0.00000143,
 0.00000563,0.00003876,-0.00000798,0.00000833,-0.00000939,-0.00000709,0
 .00002727,-0.00001919,-0.00002476,-0.00000207,0.00001423,-0.00000453,-
 0.00000189,-0.00000064,0.00001071,0.00001436\\\@


 ACHIEVEMENT--  THE MAN WHO ROWS THE BOAT GENERALLY 
                DOESN'T HAVE TIME TO ROCK IT.

                   -- FROM THE BACK OF A SUGAR PACKET

 Writing WrtUnf unformatted file "test001.mat"
 Gaussian matrix elements                                         Version   2 NLab=11 Len12L=8 Len4L=8
 Write SHELL TO ATOM MAP                   from file      0 offset           0 length                  12 to matrix element file.
 Write SHELL TYPES                         from file      0 offset           0 length                  12 to matrix element file.
 Write NUMBER OF PRIMITIVES PER SHELL      from file      0 offset           0 length                  12 to matrix element file.
 Write PRIMITIVE EXPONENTS                 from file      0 offset           0 length                  36 to matrix element file.
 Write CONTRACTION COEFFICIENTS            from file      0 offset           0 length                  36 to matrix element file.
 Write P(S=P) CONTRACTION COEFFICIENTS     from file      0 offset           0 length                  36 to matrix element file.
 Write COORDINATES OF EACH SHELL           from file      0 offset           0 length                  36 to matrix element file.
 Write BONDS PER ATOM                      from file      0 offset           0 length                   9 to matrix element file.
 Write BONDED ATOMS                        from file      0 offset           0 length                  16 to matrix element file.
 Write BOND TYPES                          from file      0 offset           0 length                  16 to matrix element file.
 Write ONIOM CHARGE/MULT                   from file      0 offset           0 length                  32 to matrix element file.
 Write ONIOM ATOM LAYERS                   from file      0 offset           0 length                   9 to matrix element file.
 Write ONIOM ATOM MODIFIERS                from file      0 offset           0 length                   9 to matrix element file.
 Write ONIOM ATOM TYPES                    from file      0 offset           0 length                   9 to matrix element file.
 Write ONIOM LINK ATOMS                    from file      0 offset           0 length                   9 to matrix element file.
 Write ONIOM LINK CHARGES                  from file      0 offset           0 length                   9 to matrix element file.
 Write ONIOM LINK DISTANCES                from file      0 offset           0 length                  36 to matrix element file.
 Write SYMINF INTS                         from file      0 offset           0 length                  26 to matrix element file.
 Write ROTTR TO SO                         from file      0 offset           0 length                  12 to matrix element file.
 Write GAUSSIAN SCALARS                    from file    501 offset           0 to matrix element file.
 Write OPTIMIZATION FLAGS                  from file      0 offset           0 length                   9 to matrix element file.
 Write INTEGER ISO                         from file      0 offset           0 length                   9 to matrix element file.
 Write INTEGER SPIN                        from file      0 offset           0 length                   9 to matrix element file.
 Write REAL ZEFFECTIVE                     from file      0 offset           0 length                   9 to matrix element file.
 Write REAL GFACTOR                        from file      0 offset           0 length                   9 to matrix element file.
 Write REAL ZNUCLEAR                       from file      0 offset           0 length                   9 to matrix element file.
 Write MULLIKEN CHARGES                    from file      0 offset           0 length                   9 to matrix element file.
 Write NUCLEAR GRADIENT                    from file 100584 offset           0 length                  27 to matrix element file.
 Write NUCLEAR FORCE CONSTANTS             from file 100585 offset           0 length                 378 to matrix element file.
 Write ELECTRIC DIPOLE MOMENT              from file      0 offset           0 length                   3 to matrix element file.
 Write ELECTRIC DIPOLE POLARIZABILITY      from file      0 offset           0 length                   6 to matrix element file.
 Write ELECTRIC DIPOLE DERIVATIVES         from file      0 offset           0 length                  81 to matrix element file.
 Write DIPOLE POLARIZABILITY DERIVATIVES   from file      0 offset           0 length                 162 to matrix element file.
 Write ELECTRIC DIPOLE HYPERPOLARIZABILITY from file      0 offset           0 length                  10 to matrix element file.
 Write NON-ADIABATIC COUPLING              from file 100810 offset           0 length                  27 to matrix element file.
 Write TRAJ SCALARS                        from file      0 offset           0 length                  16 to matrix element file.
 Write TRAJ NSTEP                          from file      0 offset           0 length                   1 to matrix element file.
 Write TRAJ RESULTS                        from file      0 offset           0 length                  56 to matrix element file.
 Write RED INT COORD DIMS                  from file      0 offset           0 length                   4 to matrix element file.
 Write RED INT COORD ATOMS                 from file      0 offset           0 length                 132 to matrix element file.
 Write RED INT COORD VALS                  from file      0 offset           0 length                  33 to matrix element file.
 Write RED INT COORD IFLAGS                from file      0 offset           0 length                  33 to matrix element file.
 Write RED INT COORD RFLAGS                from file      0 offset           0 length                  33 to matrix element file.
 Write RED INT COORD CONSTRAINT            from file      0 offset           0 length                  66 to matrix element file.
 Write FINITE EM FIELD                     from file 100521 offset           0 length                 105 to matrix element file.
 Write OVERLAP                             from file 100514 offset           0 length                 231 to matrix element file.
 Write CORE HAMILTONIAN ALPHA              from file 100515 offset           0 length                 231 to matrix element file.
 Write CORE HAMILTONIAN BETA               from file 100515 offset         231 length                 231 to matrix element file.
 Write KINETIC ENERGY                      from file 100516 offset           0 length                 231 to matrix element file.
 Write ORTHOGONAL BASIS                    from file 100685 offset           0 length                 441 to matrix element file.
 Write DIPOLE INTEGRALS                    from file 100518 offset           0 length                 693 to matrix element file.
 Write DIP VEL INTEGRALS                   from file 100572 offset           0 length                 693 to matrix element file.
 Write R X DEL INTEGRALS                   from file 100572 offset         693 length                 693 to matrix element file.
 Write ALPHA ORBITAL ENERGIES              from file      0 offset           0 length                  21 to matrix element file.
 Write ALPHA MO COEFFICIENTS               from file 100524 offset           0 length                 441 to matrix element file.
 Write ALPHA DENSITY MATRIX                from file      0 offset           0 length                 231 to matrix element file.
 Write ALPHA FOCK MATRIX                   from file 100536 offset           0 length                 231 to matrix element file.
 Write ENERGY-WEIGHTED DENSITY             from file 100571 offset           0 length                 231 to matrix element file.
 Write ALPHA SCF DENSITY MATRIX            from file      0 offset           0 length                 231 to matrix element file.
 Write TRANS MO COEFFICIENTS               from file 100548 offset           0 length                 441 to matrix element file.
 No 2e integrals to process.
 Job cpu time:       0 days  0 hours  0 minutes  1.5 seconds.
 Elapsed time:       0 days  0 hours  0 minutes  1.7 seconds.
 File lengths (MBytes):  RWF=      6 Int=      0 D2E=      0 Chk=      1 Scr=      1
 Normal termination of Gaussian DV at Wed Nov 13 12:36:40 2019.
